 Gaussian 16, Revision A.03,
 Gaussian 16:  EM64M-G16RevA.03 25-Dec-2016

 ---------------------
 # freq b3lyp/6-31g(d)
 ---------------------

 ---------
 good luck
 ---------
 Symbolic Z-matrix:
 Charge =  0 Multiplicity = 1

                         Standard orientation:
 ---------------------------------------------------------------------
 Center     Atomic      Atomic             Coordinates (Angstroms)
 Number     Number       Type             X           Y           Z
 ---------------------------------------------------------------------
      1          8           0       -2.449590   -0.701266    0.060948
      2          6           0       -1.325100   -0.253974    0.015043
      3          6           0       -0.029114   -1.072465    0.031748
      4          6           0        1.080345   -0.083384   -0.372274
      5          6           0        2.481339   -0.458168    0.108658
      6          6           0        0.562522    1.271279    0.173466
      7          6           0       -0.953881    1.232945   -0.070310
      8          1           0        0.124762   -1.424328    1.063985
      9          1           0       -0.114775   -1.962809   -0.599053
     10          1           0        1.092763   -0.018310   -1.470841
     11          1           0        3.217061    0.299732   -0.186222
     12          1           0        2.509269   -0.543395    1.202588
     13          1           0        2.805826   -1.418232   -0.309320
     14          1           0        1.057716    2.126778   -0.297588
     15          1           0        0.768343    1.330048    1.251415
     16          1           0       -1.204666    1.576338   -1.084394
     17          1           0       -1.556247    1.826903    0.623858
 ---------------------------------------------------------------------

 SCF Done:  E(RB3LYP) =  -309.888425811     A.U. after   13 cycles

 The electronic state is 1-A.
 Alpha  occ. eigenvalues --  -19.13383 -10.27065 -10.19948 -10.19123 -10.19099
 Alpha  occ. eigenvalues --  -10.18928 -10.18250  -1.03370  -0.84309  -0.74619
 Alpha  occ. eigenvalues --   -0.71098  -0.65008  -0.57322  -0.53034  -0.49119
 Alpha  occ. eigenvalues --   -0.45714  -0.43744  -0.42609  -0.41237  -0.40392
 Alpha  occ. eigenvalues --   -0.38141  -0.37439  -0.34955  -0.33601  -0.33202
 Alpha  occ. eigenvalues --   -0.32714  -0.23534
 Alpha virt. eigenvalues --   -0.01404   0.07853   0.11481   0.11661   0.14072
 Alpha virt. eigenvalues --    0.15032   0.15905   0.16186   0.17251   0.18193
 Alpha virt. eigenvalues --    0.19244   0.20290   0.22406   0.23978   0.26394

 Mulliken charges:
               1
     1  O   -0.447620
     2  C    0.441981
     3  C   -0.351104
     4  C   -0.087599
     5  C   -0.447270
     6  C   -0.281724
     7  C   -0.353771
     8  H    0.166219
     9  H    0.168848
    10  H    0.132788
    11  H    0.145460
    12  H    0.141738
    13  H    0.147577
    14  H    0.142568
    15  H    0.140140
    16  H    0.171106
    17  H    0.170664
 Sum of Mulliken charges =  -0.00000

 Dipole moment (field-independent basis, Debye):
    X=              2.7444    Y=              1.0520    Z=             -0.1721  Tot=              2.9442
 Quadrupole moment (field-independent basis, Debye-Ang):
   XX=            -51.8726   YY=            -42.3740   ZZ=            -41.4328
   XY=             -3.4233   XZ=              0.1567   YZ=             -0.0416

  Exact polarizability:  71.434   0.179  62.382  -0.141  -0.365  51.569
 Approx polarizability:  95.325   4.704  85.185  -0.534  -1.144  78.181

                      1                      2                      3
                      A                      A                      A
 Frequencies --     85.8944               169.4782               242.0241
 Red. masses --      2.9618                 1.9348                 1.0645
 Frc consts  --      0.0129                 0.0327                 0.0367
 IR Inten    --      5.2035                 0.3432                 0.0492

                      4                      5                      6
                      A                      A                      A
 Frequencies --    279.2529               410.7607               459.2886
 Red. masses --      2.5484                 1.8527                 2.2970
 Frc consts  --      0.1171                 0.1842                 0.2855
 IR Inten    --      0.8957                 0.6683                 0.5641

                      7                      8                      9
                      A                      A                      A
 Frequencies --    483.6623               534.7757               582.5488
 Red. masses --      3.5523                 3.7782                 2.8628
 Frc consts  --      0.4896                 0.6366                 0.5724
 IR Inten    --      7.6108                 3.8387                 3.3120

                     10                     11                     12
                      A                      A                      A
 Frequencies --    731.2770               812.0260               847.5705
 Red. masses --      1.9506                 2.9957                 2.2327
 Frc consts  --      0.6146                 1.1638                 0.9450
 IR Inten    --      2.3558                 1.8768                 0.7343

                     13                     14                     15
                      A                      A                      A
 Frequencies --    898.8938               942.7537               958.9071
 Red. masses --      1.5858                 1.7512                 1.3735
 Frc consts  --      0.7549                 0.9171                 0.7441
 IR Inten    --      4.3834                 0.5041                 2.7183

                     16                     17                     18
                      A                      A                      A
 Frequencies --   1004.6371              1014.2319              1088.5019
 Red. masses --      1.8426                 1.1916                 2.6570
 Frc consts  --      1.0957                 0.7222                 1.8548
 IR Inten    --      2.3062                 1.1744                15.0494

                     19                     20                     21
                      A                      A                      A
 Frequencies --   1156.1624              1167.3556              1181.2031
 Red. masses --      2.1206                 3.0310                 1.5232
 Frc consts  --      1.6701                 2.4336                 1.2521
 IR Inten    --      4.2088                61.5137                 5.4265

                     22                     23                     24
                      A                      A                      A
 Frequencies --   1232.7476              1263.3414              1280.3951
 Red. masses --      1.6130                 1.4588                 1.5082
 Frc consts  --      1.4442                 1.3718                 1.4568
 IR Inten    --      1.3967                 0.2476                 6.5745

                     25                     26                     27
                      A                      A                      A
 Frequencies --   1319.1039              1332.0115              1365.4142
 Red. masses --      1.3585                 1.3682                 1.3192
 Frc consts  --      1.3928                 1.4302                 1.4491
 IR Inten    --      1.9338                 6.2255                 3.6648

                     28                     29                     30
                      A                      A                      A
 Frequencies --   1400.8961              1441.2371              1478.6934
 Red. masses --      1.5380                 1.2562                 1.0922
 Frc consts  --      1.7783                 1.5373                 1.4070
 IR Inten    --      3.7556                 2.3347                12.0272

                     31                     32                     33
                      A                      A                      A
 Frequencies --   1481.5830              1525.3585              1527.7339
 Red. masses --      1.0864                 1.0639                 1.0602
 Frc consts  --      1.4050                 1.4584                 1.4580
 IR Inten    --      3.2628                 0.6262                 2.8413

                     34                     35                     36
                      A                      A                      A
 Frequencies --   1531.6872              1845.9035              3011.9175
 Red. masses --      1.0664                12.5697                 1.0820
 Frc consts  --      1.4741                25.2343                 5.7833
 IR Inten    --      7.8218               224.2350                 7.5519

                     37                     38                     39
                      A                      A                      A
 Frequencies --   3026.3382              3037.1039              3040.7600
 Red. masses --      1.0706                 1.0492                 1.0607
 Frc consts  --      5.7771                 5.7020                 5.7783
 IR Inten    --     14.8833                15.3546                 6.1498

                     40                     41                     42
                      A                      A                      A
 Frequencies --   3045.2388              3100.2992              3104.9941
 Red. masses --      1.0625                 1.0991                 1.0993
 Frc consts  --      5.8052                 6.2244                 6.2444
 IR Inten    --     56.2640                 8.9390                55.9974

                     43                     44                     45
                      A                      A                      A
 Frequencies --   3109.8093              3113.9061              3116.7470
 Red. masses --      1.1023                 1.0934                 1.0955
 Frc consts  --      6.2808                 6.2466                 6.2702
 IR Inten    --     24.5345                20.2419                19.4383

 - Thermochemistry -
 -------------------
 Temperature   298.150 Kelvin.  Pressure   1.00000 Atm.
 Atom     1 has atomic number  8 and mass  15.99491

 Molecular mass:    98.07317 amu.
 Principal axes and moments of inertia in atomic units:
                           1         2         3
     Eigenvalues --   335.04732 933.758151191.59872
           X            0.99943  -0.03347   0.00478
           Y            0.03348   0.99944  -0.00199
           Z           -0.00471   0.00215   0.99999
 This molecule is an asymmetric top.
 Rotational symmetry number  1.
 Rotational temperatures (Kelvin)      0.25851     0.09276     0.07269
 Rotational constants (GHZ):           5.38653     1.93277     1.51455
 Zero-point vibrational energy     393478.2 (Joules/Mol)
                                   94.04356 (Kcal/Mol)
 Warning -- explicit consideration of   9 degrees of freedom as
           vibrations may cause significant error
 Vibrational temperatures:    123.58   243.84   348.22   401.78   590.99
          (Kelvin)            660.81   695.88   769.42   838.16  1052.14
                             1168.32  1219.46  1293.31  1356.41  1379.65
                             1445.45  1459.25  1566.11  1663.46  1679.56
                             1699.49  1773.65  1817.67  1842.20  1897.90
                             1916.47  1964.53  2015.58  2073.62  2127.51
                             2131.67  2194.65  2198.07  2203.76  2655.84
                             4333.48  4354.23  4369.72  4374.98  4381.42
                             4460.64  4467.39  4474.32  4480.22  4484.30

 Zero-point correction=                           0.149868 (Hartree/Particle)
 Thermal correction to Energy=                    0.156824
 Thermal correction to Enthalpy=                  0.157768
 Thermal correction to Gibbs Free Energy=         0.118951
 Sum of electronic and zero-point Energies=           -309.738558
 Sum of electronic and thermal Energies=              -309.731602
 Sum of electronic and thermal Enthalpies=            -309.730657
 Sum of electronic and thermal Free Energies=         -309.769475

                     E (Thermal)             CV                S
                      KCal/Mol        Cal/Mol-Kelvin    Cal/Mol-Kelvin
 Total                   98.409             26.140             81.698
 Electronic               0.000              0.000              0.000
 Translational            0.889              2.981             39.660
 Rotational               0.889              2.981             27.413
 Vibrational             96.631             20.179             14.625
 Vibration     1          0.601              1.959              3.751
 Vibration     2          0.625              1.880              2.441
 Vibration     3          0.658              1.776              1.788
 Vibration     4          0.680              1.712              1.538
 Vibration     5          0.775              1.447              0.924
 Vibration     6          0.817              1.340              0.768
 Vibration     7          0.840              1.286              0.700
 Vibration     8          0.890              1.173              0.577
 Vibration     9          0.939              1.069              0.481

 Normal termination of Gaussian 16 at Wed Feb 21 18:10:05 2024.
