 Gaussian 16, Revision A.03,
 Gaussian 16:  EM64M-G16RevA.03 25-Dec-2016

 ---------------------
 # freq b3lyp/6-31g(d)
 ---------------------

 ---------
 good luck
 ---------
 Symbolic Z-matrix:
 Charge =  0 Multiplicity = 1

                         Standard orientation:
 ---------------------------------------------------------------------
 Center     Atomic      Atomic             Coordinates (Angstroms)
 Number     Number       Type             X           Y           Z
 ---------------------------------------------------------------------
      1          8           0        2.326260   -0.553211   -0.321078
      2          6           0        1.213504   -0.167246   -0.038809
      3          6           0        0.135111   -0.985906    0.681221
      4          6           0       -1.177309   -0.198565    0.490021
      5          6           0       -1.927924   -0.629626   -0.778124
      6          6           0       -0.694155    1.278131    0.416192
      7          6           0        0.645099    1.226075   -0.338213
      8          1           0        0.418381   -1.030951    1.743015
      9          1           0        0.114829   -2.016610    0.312881
     10          1           0       -1.844918   -0.334899    1.348568
     11          1           0       -2.833256   -0.028605   -0.922717
     12          1           0       -1.308187   -0.517824   -1.676968
     13          1           0       -2.228900   -1.681963   -0.717880
     14          1           0       -0.532232    1.661220    1.431613
     15          1           0       -1.432359    1.931161   -0.061082
     16          1           0        0.508188    1.303482   -1.425266
     17          1           0        1.362415    2.003500   -0.057268
 ---------------------------------------------------------------------

 SCF Done:  E(RB3LYP) =  -309.886530698     A.U. after   13 cycles

 The electronic state is 1-A.
 Alpha  occ. eigenvalues --  -19.13356 -10.27038 -10.19925 -10.19109 -10.19053
 Alpha  occ. eigenvalues --  -10.18907 -10.18236  -1.03350  -0.84245  -0.74200
 Alpha  occ. eigenvalues --   -0.70983  -0.65778  -0.56503  -0.53098  -0.48799
 Alpha  occ. eigenvalues --   -0.46554  -0.44110  -0.41672  -0.41113  -0.39913
 Alpha  occ. eigenvalues --   -0.39221  -0.37379  -0.34651  -0.33447  -0.33098
 Alpha  occ. eigenvalues --   -0.32726  -0.23520
 Alpha virt. eigenvalues --   -0.01441   0.07373   0.11129   0.12966   0.14270
 Alpha virt. eigenvalues --    0.14593   0.15083   0.16912   0.17270   0.18207
 Alpha virt. eigenvalues --    0.19197   0.20335   0.22301   0.25081   0.25769

 Mulliken charges:
               1
     1  O   -0.446749
     2  C    0.443727
     3  C   -0.353723
     4  C   -0.095717
     5  C   -0.448785
     6  C   -0.282686
     7  C   -0.356639
     8  H    0.169766
     9  H    0.168218
    10  H    0.130796
    11  H    0.146829
    12  H    0.144767
    13  H    0.149071
    14  H    0.142844
    15  H    0.142307
    16  H    0.174165
    17  H    0.171810
 Sum of Mulliken charges =  -0.00000

 Dipole moment (field-independent basis, Debye):
    X=             -2.7133    Y=              0.9012    Z=              0.6947  Tot=              2.9423
 Quadrupole moment (field-independent basis, Debye-Ang):
   XX=            -50.9427   YY=            -42.0829   ZZ=            -41.6635
   XY=              2.6958   XZ=              1.5987   YZ=             -0.6643

  Exact polarizability:  67.303  -0.782  61.384  -1.338  -1.188  54.429
 Approx polarizability:  93.849  -4.754  83.783  -4.573  -1.075  79.403

                      1                      2                      3
                      A                      A                      A
 Frequencies --     71.8213               167.8399               234.5008
 Red. masses --      3.3441                 2.0764                 1.0401
 Frc consts  --      0.0102                 0.0345                 0.0337
 IR Inten    --      4.4770                 0.7621                 0.1460

                      4                      5                      6
                      A                      A                      A
 Frequencies --    346.1296               362.6962               456.6342
 Red. masses --      2.0846                 1.9126                 2.6350
 Frc consts  --      0.1471                 0.1482                 0.3237
 IR Inten    --      0.7926                 0.6424                 3.5510

                      7                      8                      9
                      A                      A                      A
 Frequencies --    471.9819               579.9414               667.5346
 Red. masses --      3.1709                 3.4501                 2.6213
 Frc consts  --      0.4162                 0.6837                 0.6882
 IR Inten    --      4.6566                 3.9535                 3.2195

                     10                     11                     12
                      A                      A                      A
 Frequencies --    739.0166               793.2402               817.0084
 Red. masses --      2.3008                 2.7823                 2.3091
 Frc consts  --      0.7404                 1.0315                 0.9081
 IR Inten    --      2.2699                 2.2979                 0.7697

                     13                     14                     15
                      A                      A                      A
 Frequencies --    890.6514               939.2088               971.5336
 Red. masses --      1.7557                 2.0379                 1.4157
 Frc consts  --      0.8206                 1.0591                 0.7873
 IR Inten    --      4.7378                 1.5418                 0.5557

                     16                     17                     18
                      A                      A                      A
 Frequencies --   1006.2526              1016.1910              1047.3001
 Red. masses --      2.0491                 1.5467                 1.4093
 Frc consts  --      1.2225                 0.9410                 0.9107
 IR Inten    --      0.5996                 1.7355                 7.5959

                     19                     20                     21
                      A                      A                      A
 Frequencies --   1133.4669              1164.8443              1186.5371
 Red. masses --      1.4702                 4.1995                 1.3431
 Frc consts  --      1.1129                 3.3572                 1.1141
 IR Inten    --      1.5107                76.1910                 1.9049

                     22                     23                     24
                      A                      A                      A
 Frequencies --   1215.1615              1243.4892              1283.4952
 Red. masses --      1.5357                 1.5612                 1.5900
 Frc consts  --      1.3361                 1.4223                 1.5433
 IR Inten    --      0.3134                 0.8274                 1.6105

                     25                     26                     27
                      A                      A                      A
 Frequencies --   1311.5229              1337.6753              1363.3118
 Red. masses --      1.2786                 1.5669                 1.4826
 Frc consts  --      1.2958                 1.6519                 1.6236
 IR Inten    --      3.4874                 1.1294                 4.4915

                     28                     29                     30
                      A                      A                      A
 Frequencies --   1392.4005              1442.2953              1477.3555
 Red. masses --      1.3966                 1.2494                 1.0869
 Frc consts  --      1.5953                 1.5313                 1.3978
 IR Inten    --      4.1908                 4.6196                13.2797

                     31                     32                     33
                      A                      A                      A
 Frequencies --   1483.3076              1524.1990              1529.5325
 Red. masses --      1.0821                 1.0697                 1.0560
 Frc consts  --      1.4028                 1.4642                 1.4556
 IR Inten    --      3.9204                 5.1187                 0.7139

                     34                     35                     36
                      A                      A                      A
 Frequencies --   1534.2223              1844.8532              3037.5992
 Red. masses --      1.0646                12.5920                 1.0655
 Frc consts  --      1.4764                25.2504                 5.7926
 IR Inten    --      5.1713               216.2363                19.9669

                     37                     38                     39
                      A                      A                      A
 Frequencies --   3041.1268              3050.2675              3054.2018
 Red. masses --      1.0419                 1.0691                 1.0651
 Frc consts  --      5.6775                 5.8604                 5.8539
 IR Inten    --     13.8118                11.0926                16.1387

                     40                     41                     42
                      A                      A                      A
 Frequencies --   3067.5634              3101.3721              3106.0676
 Red. masses --      1.0825                 1.0992                 1.1002
 Frc consts  --      6.0018                 6.2291                 6.2541
 IR Inten    --     32.5052                17.3309                53.5889

                     43                     44                     45
                      A                      A                      A
 Frequencies --   3110.5078              3113.9882              3115.8899
 Red. masses --      1.0968                 1.1002                 1.0983
 Frc consts  --      6.2521                 6.2855                 6.2823
 IR Inten    --      4.8469                41.5426                17.3009

 - Thermochemistry -
 -------------------
 Temperature   298.150 Kelvin.  Pressure   1.00000 Atm.
 Atom     1 has atomic number  8 and mass  15.99491

 Molecular mass:    98.07317 amu.
 Principal axes and moments of inertia in atomic units:
                           1         2         3
     Eigenvalues --   408.57047 832.32326 997.38937
           X            0.99922   0.03451   0.01910
           Y           -0.03434   0.99937  -0.00879
           Z           -0.01939   0.00813   0.99978
 This molecule is an asymmetric top.
 Rotational symmetry number  1.
 Rotational temperatures (Kelvin)      0.21199     0.10406     0.08684
 Rotational constants (GHZ):           4.41721     2.16832     1.80947
 Zero-point vibrational energy     393845.0 (Joules/Mol)
                                   94.13121 (Kcal/Mol)
 Warning -- explicit consideration of   8 degrees of freedom as
           vibrations may cause significant error
 Vibrational temperatures:    103.33   241.48   337.39   498.00   521.84
          (Kelvin)            656.99   679.08   834.41   960.43  1063.28
                             1141.30  1175.49  1281.45  1351.31  1397.82
                             1447.77  1462.07  1506.83  1630.81  1675.95
                             1707.16  1748.35  1789.10  1846.66  1886.99
                             1924.62  1961.50  2003.35  2075.14  2125.59
                             2134.15  2192.98  2200.66  2207.40  2654.33
                             4370.43  4375.50  4388.65  4394.32  4413.54
                             4462.18  4468.94  4475.33  4480.33  4483.07

 Zero-point correction=                           0.150008 (Hartree/Particle)
 Thermal correction to Energy=                    0.156931
 Thermal correction to Enthalpy=                  0.157876
 Thermal correction to Gibbs Free Energy=         0.119044
 Sum of electronic and zero-point Energies=           -309.736523
 Sum of electronic and thermal Energies=              -309.729599
 Sum of electronic and thermal Enthalpies=            -309.728655
 Sum of electronic and thermal Free Energies=         -309.767486

                     E (Thermal)             CV                S
                      KCal/Mol        Cal/Mol-Kelvin    Cal/Mol-Kelvin
 Total                   98.476             26.032             81.728
 Electronic               0.000              0.000              0.000
 Translational            0.889              2.981             39.660
 Rotational               0.889              2.981             27.319
 Vibrational             96.699             20.071             14.748
 Vibration     1          0.598              1.967              4.103
 Vibration     2          0.625              1.882              2.460
 Vibration     3          0.654              1.788              1.844
 Vibration     4          0.724              1.583              1.184
 Vibration     5          0.737              1.549              1.111
 Vibration     6          0.815              1.346              0.776
 Vibration     7          0.829              1.312              0.732
 Vibration     8          0.937              1.075              0.485

 Normal termination of Gaussian 16 at Wed Feb 21 18:09:19 2024.
