 Gaussian 16, Revision A.03,
 Gaussian 16:  EM64M-G16RevA.03 25-Dec-2016

 ---------------------
 # freq b3lyp/6-31g(d)
 ---------------------

 ---------
 good luck
 ---------
 Symbolic Z-matrix:
 Charge =  0 Multiplicity = 1

                         Standard orientation:
 ---------------------------------------------------------------------
 Center     Atomic      Atomic             Coordinates (Angstroms)
 Number     Number       Type             X           Y           Z
 ---------------------------------------------------------------------
      1          8           0       -1.687532    1.749671    0.049107
      2          6           0       -1.419825    0.579335   -0.073909
      3          6           0       -2.139008   -0.606351   -0.728577
      4          6           0       -1.002197   -1.529122   -0.199166
      5          6           0       -0.246924   -0.298623    0.431983
      6          6           0        1.143790    0.062528   -0.203893
      7          6           0        2.162688   -1.062887    0.066332
      8          6           0        1.011643    0.249675   -1.732881
      9          6           0        1.672943    1.387157    0.387788
     10          6           0       -0.239271   -0.339079    1.970332
     11          1           0       -2.198015   -0.518132   -1.819773
     12          1           0       -3.149305   -0.791627   -0.347705
     13          1           0       -1.334137   -2.256732    0.546567
     14          1           0       -0.456316   -2.064645   -0.978537
     15          1           0        1.822900   -2.024949   -0.334848
     16          1           0        2.356565   -1.192743    1.136437
     17          1           0        3.120512   -0.825650   -0.412491
     18          1           0        0.331878    1.072658   -1.981733
     19          1           0        1.989595    0.492577   -2.164176
     20          1           0        0.653222   -0.655393   -2.236062
     21          1           0        2.581034    1.697983   -0.142631
     22          1           0        0.930474    2.186215    0.292068
     23          1           0        1.932880    1.288265    1.446758
     24          1           0        0.464922   -1.089301    2.346408
     25          1           0        0.023776    0.632143    2.397693
     26          1           0       -1.232755   -0.603832    2.351121
 ---------------------------------------------------------------------

 SCF Done:  E(RB3LYP) =  -427.795994291     A.U. after   13 cycles

 The electronic state is 1-A.
 Alpha  occ. eigenvalues --  -19.14288 -10.26831 -10.20515 -10.19970 -10.19166
 Alpha  occ. eigenvalues --  -10.18925 -10.18229 -10.17550 -10.17517 -10.16854
 Alpha  occ. eigenvalues --   -1.03922  -0.85673  -0.79838  -0.72930  -0.68591
 Alpha  occ. eigenvalues --   -0.68055  -0.63803  -0.62427  -0.55976  -0.49036
 Alpha  occ. eigenvalues --   -0.47789  -0.45936  -0.45319  -0.43780  -0.43314
 Alpha  occ. eigenvalues --   -0.42605  -0.39844  -0.39087  -0.38587  -0.37951
 Alpha  occ. eigenvalues --   -0.37349  -0.36053  -0.35580  -0.34492  -0.33913
 Alpha  occ. eigenvalues --   -0.32734  -0.31243  -0.30167  -0.23240
 Alpha virt. eigenvalues --   -0.01897   0.07135   0.10767   0.11291   0.12260
 Alpha virt. eigenvalues --    0.12710   0.13739   0.13806   0.15209   0.15938
 Alpha virt. eigenvalues --    0.17178   0.17512   0.18765   0.19453   0.19873

 Mulliken charges:
               1
     1  O   -0.438885
     2  C    0.416438
     3  C   -0.362699
     4  C   -0.322395
     5  C    0.050294
     6  C    0.097005
     7  C   -0.451066
     8  C   -0.475921
     9  C   -0.462581
    10  C   -0.473926
    11  H    0.174112
    12  H    0.171544
    13  H    0.145380
    14  H    0.147272
    15  H    0.141240
    16  H    0.143553
    17  H    0.142973
    18  H    0.158128
    19  H    0.144966
    20  H    0.140099
    21  H    0.136702
    22  H    0.172308
    23  H    0.141243
    24  H    0.152420
    25  H    0.168342
    26  H    0.143455
 Sum of Mulliken charges =  -0.00000

 Dipole moment (field-independent basis, Debye):
    X=              0.8136    Y=             -2.4344    Z=             -0.1751  Tot=              2.5727
 Quadrupole moment (field-independent basis, Debye-Ang):
   XX=            -63.3037   YY=            -68.0695   ZZ=            -61.2970
   XY=              5.0574   XZ=              0.1544   YZ=             -0.3559

  Exact polarizability:  98.688   1.745  90.149   1.805   0.638  87.377
 Approx polarizability: 131.222  -2.310 139.745   1.921   2.377 123.415

                      1                      2                      3
                      A                      A                      A
 Frequencies --     50.4792                84.8141               144.7833
 Red. masses --      2.8304                 2.5688                 3.9380
 Frc consts  --      0.0042                 0.0109                 0.0486
 IR Inten    --      3.7172                 0.6618                 2.0203

                      4                      5                      6
                      A                      A                      A
 Frequencies --    204.8663               211.7636               260.2979
 Red. masses --      1.2634                 1.2893                 1.9073
 Frc consts  --      0.0312                 0.0341                 0.0761
 IR Inten    --      1.0336                 0.6720                 0.2277

                      7                      8                      9
                      A                      A                      A
 Frequencies --    265.1196               271.7245               296.7953
 Red. masses --      1.2091                 1.3347                 1.5897
 Frc consts  --      0.0501                 0.0581                 0.0825
 IR Inten    --      0.0910                 0.8531                 0.1442

                     10                     11                     12
                      A                      A                      A
 Frequencies --    301.5945               343.6292               374.1040
 Red. masses --      2.4523                 2.3806                 1.8966
 Frc consts  --      0.1314                 0.1656                 0.1564
 IR Inten    --      0.3489                 0.3311                 0.0303

                     13                     14                     15
                      A                      A                      A
 Frequencies --    404.2398               417.2974               442.9110
 Red. masses --      2.3917                 2.4191                 2.6245
 Frc consts  --      0.2303                 0.2482                 0.3033
 IR Inten    --      0.1123                 0.7338                 0.3589

                     16                     17                     18
                      A                      A                      A
 Frequencies --    512.3377               538.7402               612.2821
 Red. masses --      1.9569                 3.1373                 3.3102
 Frc consts  --      0.3026                 0.5365                 0.7312
 IR Inten    --      0.2917                 2.2697                 1.2130

                     19                     20                     21
                      A                      A                      A
 Frequencies --    708.2274               757.2173               797.4541
 Red. masses --      4.8187                 1.2458                 2.8335
 Frc consts  --      1.4241                 0.4209                 1.0616
 IR Inten    --      0.3427                 2.8496                 2.3280

                     22                     23                     24
                      A                      A                      A
 Frequencies --    876.5812               892.0447               938.8142
 Red. masses --      2.3660                 2.2604                 1.8502
 Frc consts  --      1.0711                 1.0597                 0.9608
 IR Inten    --      2.9876                 0.2444                 1.0795

                     25                     26                     27
                      A                      A                      A
 Frequencies --    943.6821               945.7966               972.3797
 Red. masses --      2.0163                 2.0181                 1.6509
 Frc consts  --      1.0579                 1.0636                 0.9197
 IR Inten    --      1.2087                 1.2371                 1.6480

                     28                     29                     30
                      A                      A                      A
 Frequencies --    976.1718              1037.6024              1048.2651
 Red. masses --      1.3001                 1.4061                 1.4352
 Frc consts  --      0.7299                 0.8920                 0.9292
 IR Inten    --      0.6331                 3.7388                 1.9892

                     31                     32                     33
                      A                      A                      A
 Frequencies --   1067.3793              1088.3311              1155.2010
 Red. masses --      2.7527                 1.4804                 2.3362
 Frc consts  --      1.8478                 1.0331                 1.8369
 IR Inten    --     71.4712                10.4851                 9.8821

                     34                     35                     36
                      A                      A                      A
 Frequencies --   1177.2266              1189.8315              1231.9487
 Red. masses --      2.2668                 1.9634                 1.3723
 Frc consts  --      1.8509                 1.6377                 1.2272
 IR Inten    --      8.1415                 8.1752                 2.6264

                     37                     38                     39
                      A                      A                      A
 Frequencies --   1235.6114              1259.8598              1265.2848
 Red. masses --      1.4669                 2.3451                 2.6951
 Frc consts  --      1.3195                 2.1931                 2.5421
 IR Inten    --      3.2499                 0.7843                 2.7044

                     40                     41                     42
                      A                      A                      A
 Frequencies --   1278.4542              1297.4604              1426.6806
 Red. masses --      2.3694                 2.0883                 1.2257
 Frc consts  --      2.2817                 2.0713                 1.4699
 IR Inten    --      9.8899                14.5444                 4.9775

                     43                     44                     45
                      A                      A                      A
 Frequencies --   1429.7391              1436.2314              1460.8692
 Red. masses --      1.2212                 1.2104                 1.2128
 Frc consts  --      1.4708                 1.4710                 1.5249
 IR Inten    --      6.8242                 8.7011                 7.3078

                     46                     47                     48
                      A                      A                      A
 Frequencies --   1465.4863              1510.0346              1518.0609
 Red. masses --      1.0928                 1.0582                 1.0476
 Frc consts  --      1.3828                 1.4217                 1.4224
 IR Inten    --      9.4537                 1.9766                 0.8609

                     49                     50                     51
                      A                      A                      A
 Frequencies --   1521.3526              1522.0014              1524.7160
 Red. masses --      1.0554                 1.0671                 1.0548
 Frc consts  --      1.4392                 1.4564                 1.4447
 IR Inten    --      1.3097                 0.4543                 3.3179

                     52                     53                     54
                      A                      A                      A
 Frequencies --   1534.6255              1540.5938              1548.7410
 Red. masses --      1.0474                 1.0512                 1.0580
 Frc consts  --      1.4533                 1.4700                 1.4951
 IR Inten    --      7.3286                 5.4960                 8.4811

                     55                     56                     57
                      A                      A                      A
 Frequencies --   1553.8344              1868.4015              3043.6374
 Red. masses --      1.0554                12.5600                 1.0353
 Frc consts  --      1.5014                25.8333                 5.6508
 IR Inten    --      4.9797               206.5284                19.2999

                     58                     59                     60
                      A                      A                      A
 Frequencies --   3046.6827              3051.4875              3055.3409
 Red. masses --      1.0356                 1.0367                 1.0381
 Frc consts  --      5.6635                 5.6875                 5.7094
 IR Inten    --     23.4931                28.4020                12.0586

                     61                     62                     63
                      A                      A                      A
 Frequencies --   3067.3328              3092.1928              3105.0303
 Red. masses --      1.0594                 1.0626                 1.1017
 Frc consts  --      5.8729                 5.9862                 6.2582
 IR Inten    --     11.6039                16.9039                 9.5561

                     64                     65                     66
                      A                      A                      A
 Frequencies --   3108.6393              3109.6022              3113.7554
 Red. masses --      1.1015                 1.1014                 1.1048
 Frc consts  --      6.2713                 6.2749                 6.3108
 IR Inten    --      9.5553                14.1650                 4.4759

                     67                     68                     69
                      A                      A                      A
 Frequencies --   3114.7690              3117.6222              3120.6774
 Red. masses --      1.1009                 1.1022                 1.1002
 Frc consts  --      6.2929                 6.3119                 6.3126
 IR Inten    --     81.3192                24.1294                36.8893

                     70                     71                     72
                      A                      A                      A
 Frequencies --   3132.6534              3143.4555              3145.3181
 Red. masses --      1.1026                 1.1027                 1.1035
 Frc consts  --      6.3751                 6.4201                 6.4322
 IR Inten    --     23.1105                30.4794                16.3833

 - Thermochemistry -
 -------------------
 Temperature   298.150 Kelvin.  Pressure   1.00000 Atm.
 Atom     1 has atomic number  8 and mass  15.99491

 Molecular mass:   140.12012 amu.
 Principal axes and moments of inertia in atomic units:
                           1         2         3
     Eigenvalues --  1028.008581579.839031655.64515
           X            0.99857   0.05338   0.00014
           Y           -0.05338   0.99850  -0.01189
           Z           -0.00077   0.01186   0.99993
 This molecule is an asymmetric top.
 Rotational symmetry number  1.
 Warning -- assumption of classical behavior for rotation
           may cause significant error
 Rotational temperatures (Kelvin)      0.08425     0.05482     0.05231
 Rotational constants (GHZ):           1.75557     1.14236     1.09005
 Zero-point vibrational energy     611938.8 (Joules/Mol)
                                  146.25687 (Kcal/Mol)
 Warning -- explicit consideration of  18 degrees of freedom as
           vibrations may cause significant error
 Vibrational temperatures:     72.63   122.03   208.31   294.76   304.68
          (Kelvin)            374.51   381.45   390.95   427.02   433.93
                              494.41   538.25   581.61   600.40   637.25
                              737.14   775.13   880.94  1018.98  1089.47
                             1147.36  1261.20  1283.45  1350.74  1357.75
                             1360.79  1399.04  1404.49  1492.88  1508.22
                             1535.72  1565.87  1662.08  1693.77  1711.90
                             1772.50  1777.77  1812.66  1820.46  1839.41
                             1866.76  2052.68  2057.08  2066.42  2101.86
                             2108.51  2172.60  2184.15  2188.89  2189.82
                             2193.73  2207.98  2216.57  2228.29  2235.62
                             2688.21  4379.12  4383.50  4390.41  4395.95
                             4413.21  4448.98  4467.45  4472.64  4474.02
                             4480.00  4481.46  4485.56  4489.96  4507.19
                             4522.73  4525.41

 Zero-point correction=                           0.233075 (Hartree/Particle)
 Thermal correction to Energy=                    0.244565
 Thermal correction to Enthalpy=                  0.245509
 Thermal correction to Gibbs Free Energy=         0.196949
 Sum of electronic and zero-point Energies=           -427.562919
 Sum of electronic and thermal Energies=              -427.551430
 Sum of electronic and thermal Enthalpies=            -427.550486
 Sum of electronic and thermal Free Energies=         -427.599045

                     E (Thermal)             CV                S
                      KCal/Mol        Cal/Mol-Kelvin    Cal/Mol-Kelvin
 Total                  153.467             44.206            102.202
 Electronic               0.000              0.000              0.000
 Translational            0.889              2.981             40.724
 Rotational               0.889              2.981             29.376
 Vibrational            151.689             38.244             32.102
 Vibration     1          0.595              1.977              4.799
 Vibration     2          0.601              1.960              3.776
 Vibration     3          0.616              1.908              2.740
 Vibration     4          0.640              1.833              2.089
 Vibration     5          0.643              1.823              2.028
 Vibration     6          0.668              1.745              1.660
 Vibration     7          0.671              1.737              1.628
 Vibration     8          0.675              1.725              1.585
 Vibration     9          0.690              1.680              1.435
 Vibration    10          0.694              1.671              1.408
 Vibration    11          0.722              1.588              1.195
 Vibration    12          0.745              1.525              1.063
 Vibration    13          0.769              1.461              0.947
 Vibration    14          0.780              1.433              0.901
 Vibration    15          0.803              1.377              0.818
 Vibration    16          0.867              1.223              0.628
 Vibration    17          0.894              1.164              0.568
 Vibration    18          0.972              1.006              0.429

 Normal termination of Gaussian 16 at Wed Feb 21 19:43:03 2024.
