 Gaussian 16, Revision A.03,
 Gaussian 16:  EM64M-G16RevA.03 25-Dec-2016

 ---------------------
 # freq b3lyp/6-31g(d)
 ---------------------

 ---------
 good luck
 ---------
 Symbolic Z-matrix:
 Charge =  0 Multiplicity = 1

                         Standard orientation:
 ---------------------------------------------------------------------
 Center     Atomic      Atomic             Coordinates (Angstroms)
 Number     Number       Type             X           Y           Z
 ---------------------------------------------------------------------
      1          8           0       -0.050698    2.345873    1.658184
      2          6           0       -0.445385    1.846079    0.617742
      3          6           0       -1.882890    1.359240    0.494406
      4          6           0       -2.030124   -0.172830    0.750632
      5          6           0       -1.415220   -1.031674   -0.354733
      6          6           0       -2.535615   -1.619417   -1.212140
      7          6           0       -3.818663   -0.910681   -0.734983
      8          6           0       -3.521073   -0.591764    0.740977
      9          6           0       -0.111914   -1.269709   -0.548395
     10          6           0        1.034204   -0.760835    0.298950
     11          6           0        1.586839    0.631511   -0.162134
     12          6           0        2.627316    0.256555   -1.229501
     13          6           0        3.360394   -0.930227   -0.581781
     14          6           0        2.279643   -1.710552    0.224402
     15          6           0        2.778169   -2.159924    1.602131
     16          6           0        0.515084    1.665088   -0.567170
     17          6           0        1.126971    3.028242   -0.936040
     18          1           0       -2.277851    1.604412   -0.499885
     19          1           0       -2.469746    1.894848    1.248258
     20          1           0       -1.569268   -0.379669    1.724690
     21          1           0       -2.353151   -1.502180   -2.286563
     22          1           0       -2.615797   -2.699763   -1.024286
     23          1           0       -4.718020   -1.521019   -0.866482
     24          1           0       -3.973940    0.018068   -1.298537
     25          1           0       -4.181049    0.173247    1.163917
     26          1           0       -3.643796   -1.500529    1.344807
     27          1           0        0.164761   -1.890214   -1.403214
     28          1           0        0.688253   -0.673968    1.336846
     29          1           0        2.122313    1.058836    0.697958
     30          1           0        2.122736   -0.053295   -2.155606
     31          1           0        3.303908    1.078783   -1.485244
     32          1           0        4.128766   -0.549182    0.104327
     33          1           0        3.875161   -1.565454   -1.311173
     34          1           0        1.995776   -2.610002   -0.336528
     35          1           0        2.015478   -2.741072    2.134163
     36          1           0        3.674236   -2.786521    1.513157
     37          1           0        3.038637   -1.296676    2.227878
     38          1           0       -0.043859    1.275409   -1.425076
     39          1           0        0.349291    3.744953   -1.225676
     40          1           0        1.820745    2.932572   -1.777193
     41          1           0        1.665586    3.446823   -0.080190
 ---------------------------------------------------------------------

 SCF Done:  E(RB3LYP) =  -699.372324910     A.U. after   14 cycles

 The electronic state is 1-A.
 Alpha  occ. eigenvalues --  -19.13026 -10.26385 -10.19898 -10.18880 -10.18780
 Alpha  occ. eigenvalues --  -10.18568 -10.18561 -10.18522 -10.18431 -10.18411
 Alpha  occ. eigenvalues --  -10.18407 -10.18351 -10.17681 -10.17557 -10.17483
 Alpha  occ. eigenvalues --  -10.17462 -10.17096  -1.02954  -0.85470  -0.83925
 Alpha  occ. eigenvalues --   -0.78579  -0.75813  -0.75638  -0.72890  -0.70137
 Alpha  occ. eigenvalues --   -0.68393  -0.65511  -0.62656  -0.61980  -0.57442
 Alpha  occ. eigenvalues --   -0.55916  -0.54693  -0.52579  -0.50905  -0.48372
 Alpha  occ. eigenvalues --   -0.47846  -0.47001  -0.45854  -0.44988  -0.43517
 Alpha  occ. eigenvalues --   -0.42177  -0.41918  -0.41001  -0.40580  -0.39798
 Alpha  occ. eigenvalues --   -0.38754  -0.38167  -0.37943  -0.37293  -0.36858
 Alpha  occ. eigenvalues --   -0.35575  -0.34990  -0.34004  -0.33808  -0.33012
 Alpha  occ. eigenvalues --   -0.32729  -0.31835  -0.31632  -0.31533  -0.31104
 Alpha  occ. eigenvalues --   -0.30625  -0.29861  -0.23296  -0.22894
 Alpha virt. eigenvalues --   -0.01420   0.01406   0.08195   0.08906   0.09372
 Alpha virt. eigenvalues --    0.10453   0.11263   0.12811   0.13414   0.13950
 Alpha virt. eigenvalues --    0.14373   0.14584   0.15199   0.15850   0.16146

 Mulliken charges:
               1
     1  O   -0.467834
     2  C    0.449693
     3  C   -0.332350
     4  C   -0.166075
     5  C    0.157223
     6  C   -0.325073
     7  C   -0.281564
     8  C   -0.279306
     9  C   -0.191540
    10  C   -0.154295
    11  C   -0.079729
    12  C   -0.282105
    13  C   -0.278779
    14  C   -0.076505
    15  C   -0.458992
    16  C   -0.150832
    17  C   -0.456812
    18  H    0.143002
    19  H    0.158626
    20  H    0.148993
    21  H    0.146694
    22  H    0.152318
    23  H    0.138975
    24  H    0.140319
    25  H    0.137185
    26  H    0.141966
    27  H    0.112748
    28  H    0.138277
    29  H    0.140843
    30  H    0.131591
    31  H    0.137841
    32  H    0.135369
    33  H    0.132663
    34  H    0.125654
    35  H    0.143261
    36  H    0.141315
    37  H    0.145104
    38  H    0.125140
    39  H    0.141771
    40  H    0.147594
    41  H    0.167624
 Sum of Mulliken charges =  -0.00000

 Dipole moment (field-independent basis, Debye):
    X=             -0.8954    Y=             -1.5128    Z=             -2.0450  Tot=              2.6967
 Quadrupole moment (field-independent basis, Debye-Ang):
   XX=            -99.3543   YY=           -108.1859   ZZ=           -108.0406
   XY=             -0.3964   XZ=             -0.6074   YZ=             -5.1637

  Exact polarizability: 192.461   0.452 153.574  -2.159   3.542 137.964
 Approx polarizability: 251.132   0.530 215.169   0.221  14.670 221.182

                      1                      2                      3
                      A                      A                      A
 Frequencies --     29.3602                76.9086                81.3185
 Red. masses --      2.8570                 3.1040                 3.2317
 Frc consts  --      0.0015                 0.0108                 0.0126
 IR Inten    --      0.1259                 1.1144                 0.7260

                      4                      5                      6
                      A                      A                      A
 Frequencies --    100.4253               124.0204               160.2956
 Red. masses --      5.0099                 3.3177                 2.3271
 Frc consts  --      0.0298                 0.0301                 0.0352
 IR Inten    --      2.8320                 1.8474                 0.0222

                      7                      8                      9
                      A                      A                      A
 Frequencies --    171.9854               189.8593               227.3899
 Red. masses --      2.8285                 2.4210                 2.5964
 Frc consts  --      0.0493                 0.0514                 0.0791
 IR Inten    --      0.0323                 0.0781                 0.7621

                     10                     11                     12
                      A                      A                      A
 Frequencies --    231.3082               252.2947               266.3017
 Red. masses --      1.2715                 2.4352                 1.2284
 Frc consts  --      0.0401                 0.0913                 0.0513
 IR Inten    --      0.6860                 0.3550                 0.3292

                     13                     14                     15
                      A                      A                      A
 Frequencies --    279.5477               285.3929               306.3634
 Red. masses --      2.3518                 2.9220                 2.8924
 Frc consts  --      0.1083                 0.1402                 0.1599
 IR Inten    --      0.7807                 1.2191                 1.2301

                     16                     17                     18
                      A                      A                      A
 Frequencies --    343.6581               365.1298               398.2058
 Red. masses --      2.7290                 2.9054                 2.6444
 Frc consts  --      0.1899                 0.2282                 0.2471
 IR Inten    --      0.8065                 1.7771                 0.4876

                     19                     20                     21
                      A                      A                      A
 Frequencies --    423.9170               454.3683               532.5991
 Red. masses --      2.8167                 2.7946                 3.1612
 Frc consts  --      0.2982                 0.3399                 0.5283
 IR Inten    --      0.7253                 0.5818                 2.2749

                     22                     23                     24
                      A                      A                      A
 Frequencies --    541.6147               592.0733               593.7625
 Red. masses --      2.7686                 2.1125                 2.3224
 Frc consts  --      0.4785                 0.4363                 0.4824
 IR Inten    --      1.6574                 1.0768                 1.0642

                     25                     26                     27
                      A                      A                      A
 Frequencies --    615.5124               664.3195               680.5595
 Red. masses --      3.3860                 3.0626                 3.1700
 Frc consts  --      0.7558                 0.7963                 0.8651
 IR Inten    --     14.0007                 0.8913                 1.9947

                     28                     29                     30
                      A                      A                      A
 Frequencies --    732.4426               784.6960               807.8551
 Red. masses --      3.5917                 3.0890                 3.0253
 Frc consts  --      1.1353                 1.1207                 1.1633
 IR Inten    --      0.2171                 0.2167                 3.3756

                     31                     32                     33
                      A                      A                      A
 Frequencies --    830.8918               840.0943               859.8063
 Red. masses --      1.6547                 2.1700                 2.4039
 Frc consts  --      0.6731                 0.9023                 1.0470
 IR Inten    --      2.0562                 0.3646                 0.1840

                     34                     35                     36
                      A                      A                      A
 Frequencies --    866.9939               878.2137               904.5468
 Red. masses --      1.8960                 2.1917                 2.0477
 Frc consts  --      0.8397                 0.9959                 0.9871
 IR Inten    --      1.5948                 0.3322                 7.1484

                     37                     38                     39
                      A                      A                      A
 Frequencies --    920.2258               926.4485               961.4367
 Red. masses --      1.9362                 2.0406                 2.0643
 Frc consts  --      0.9660                 1.0319                 1.1242
 IR Inten    --      1.6833                 1.7966                 2.7397

                     40                     41                     42
                      A                      A                      A
 Frequencies --    964.5430               975.2242               983.3859
 Red. masses --      1.5949                 1.9019                 2.1549
 Frc consts  --      0.8742                 1.0657                 1.2278
 IR Inten    --      0.3793                 2.0846                 1.4835

                     43                     44                     45
                      A                      A                      A
 Frequencies --    988.7826              1003.4058              1015.9544
 Red. masses --      1.9791                 1.8015                 1.7880
 Frc consts  --      1.1400                 1.0687                 1.0873
 IR Inten    --      1.2532                 2.5602                 0.5655

                     46                     47                     48
                      A                      A                      A
 Frequencies --   1048.0390              1058.2935              1068.5709
 Red. masses --      2.0809                 2.0954                 1.9158
 Frc consts  --      1.3466                 1.3827                 1.2889
 IR Inten    --      2.6073                 9.0998                 0.5239

                     49                     50                     51
                      A                      A                      A
 Frequencies --   1076.1599              1089.2772              1096.8022
 Red. masses --      1.9806                 1.7972                 1.6067
 Frc consts  --      1.3514                 1.2564                 1.1388
 IR Inten    --      1.8896                 2.7009                21.1561

                     52                     53                     54
                      A                      A                      A
 Frequencies --   1117.4972              1134.0286              1139.8052
 Red. masses --      2.1092                 3.2673                 2.0385
 Frc consts  --      1.5519                 2.4756                 1.5603
 IR Inten    --      3.8445                 2.2501                14.1442

                     55                     56                     57
                      A                      A                      A
 Frequencies --   1161.4689              1169.1993              1189.1338
 Red. masses --      1.9090                 1.7335                 1.9101
 Frc consts  --      1.5173                 1.3962                 1.5914
 IR Inten    --      7.3244                12.2285                 2.1219

                     58                     59                     60
                      A                      A                      A
 Frequencies --   1197.0496              1221.2998              1231.7511
 Red. masses --      1.5741                 1.7147                 1.3605
 Frc consts  --      1.3290                 1.5069                 1.2162
 IR Inten    --      1.2116                 1.1520                 3.0394

                     61                     62                     63
                      A                      A                      A
 Frequencies --   1244.9687              1268.5704              1275.0602
 Red. masses --      1.4016                 1.2884                 1.3341
 Frc consts  --      1.2800                 1.2216                 1.2779
 IR Inten    --     14.8483                 0.6038                 5.1660

                     64                     65                     66
                      A                      A                      A
 Frequencies --   1285.2783              1302.4258              1317.2733
 Red. masses --      1.3618                 1.2992                 1.2996
 Frc consts  --      1.3254                 1.2985                 1.3286
 IR Inten    --      8.8528                 0.8291                 4.3643

                     67                     68                     69
                      A                      A                      A
 Frequencies --   1324.1057              1330.4378              1337.4112
 Red. masses --      1.3866                 1.3021                 1.3474
 Frc consts  --      1.4324                 1.3580                 1.4199
 IR Inten    --      0.8759                 4.2669                 0.7099

                     70                     71                     72
                      A                      A                      A
 Frequencies --   1340.5674              1350.6835              1352.4277
 Red. masses --      1.4105                 1.2830                 1.3153
 Frc consts  --      1.4934                 1.3791                 1.4174
 IR Inten    --      0.9364                 4.2607                 3.6796

                     73                     74                     75
                      A                      A                      A
 Frequencies --   1357.3636              1367.7322              1374.3279
 Red. masses --      1.2538                 1.3562                 1.4016
 Frc consts  --      1.3610                 1.4948                 1.5597
 IR Inten    --      0.2014                 6.3003                 4.2764

                     76                     77                     78
                      A                      A                      A
 Frequencies --   1383.2036              1396.0380              1403.5581
 Red. masses --      1.5658                 1.4280                 1.4483
 Frc consts  --      1.7651                 1.6397                 1.6810
 IR Inten    --     21.5674                 5.7707                 2.6845

                     79                     80                     81
                      A                      A                      A
 Frequencies --   1414.1086              1430.7396              1438.6612
 Red. masses --      1.5246                 1.2179                 1.2358
 Frc consts  --      1.7963                 1.4689                 1.5070
 IR Inten    --      3.0112                 5.2313                 2.3135

                     82                     83                     84
                      A                      A                      A
 Frequencies --   1503.8250              1507.7115              1520.2731
 Red. masses --      1.1038                 1.0857                 1.0806
 Frc consts  --      1.4707                 1.4542                 1.4715
 IR Inten    --      4.3223                 1.4060                 1.1211

                     85                     86                     87
                      A                      A                      A
 Frequencies --   1521.2018              1526.6130              1527.5620
 Red. masses --      1.0848                 1.0505                 1.0497
 Frc consts  --      1.4790                 1.4424                 1.4431
 IR Inten    --      3.6425                 6.7303                 1.9997

                     88                     89                     90
                      A                      A                      A
 Frequencies --   1529.5284              1531.9539              1535.4327
 Red. masses --      1.0494                 1.0528                 1.0937
 Frc consts  --      1.4464                 1.4557                 1.5192
 IR Inten    --      6.9252                 4.8270                 1.1957

                     91                     92                     93
                      A                      A                      A
 Frequencies --   1537.1266              1735.0022              1792.9724
 Red. masses --      1.1039                 8.5281                10.1606
 Frc consts  --      1.5367                15.1252                19.2449
 IR Inten    --      2.0028                 0.8379               120.4521

                     94                     95                     96
                      A                      A                      A
 Frequencies --   3023.4079              3027.5856              3034.3075
 Red. masses --      1.0805                 1.0694                 1.0515
 Frc consts  --      5.8193                 5.7752                 5.7041
 IR Inten    --      5.0271                23.0885                18.0891

                     97                     98                     99
                      A                      A                      A
 Frequencies --   3036.4910              3038.1644              3039.7715
 Red. masses --      1.0657                 1.0754                 1.0701
 Frc consts  --      5.7891                 5.8487                 5.8260
 IR Inten    --     10.8048                 8.7702                 7.0320

                    100                    101                    102
                      A                      A                      A
 Frequencies --   3041.1000              3046.9099              3048.2138
 Red. masses --      1.0681                 1.0783                 1.0626
 Frc consts  --      5.8202                 5.8980                 5.8170
 IR Inten    --     41.5999                43.1564                13.3289

                    103                    104                    105
                      A                      A                      A
 Frequencies --   3052.2380              3053.1157              3057.5747
 Red. masses --      1.0687                 1.0376                 1.0747
 Frc consts  --      5.8661                 5.6986                 5.9195
 IR Inten    --     13.2533                31.1719                40.7133

                    106                    107                    108
                      A                      A                      A
 Frequencies --   3073.0969              3082.9589              3091.4452
 Red. masses --      1.0835                 1.0932                 1.0967
 Frc consts  --      6.0287                 6.1217                 6.1754
 IR Inten    --     21.1367                24.1667                32.9983

                    109                    110                    111
                      A                      A                      A
 Frequencies --   3098.7107              3099.9605              3101.9845
 Red. masses --      1.0973                 1.1003                 1.1017
 Frc consts  --      6.2077                 6.2299                 6.2460
 IR Inten    --     34.4056                13.6513                59.5264

                    112                    113                    114
                      A                      A                      A
 Frequencies --   3106.4597              3107.6821              3108.7041
 Red. masses --      1.1022                 1.1033                 1.1037
 Frc consts  --      6.2670                 6.2781                 6.2846
 IR Inten    --     37.1407                54.9046                36.1385

                    115                    116                    117
                      A                      A                      A
 Frequencies --   3116.9735              3124.6478              3138.7519
 Red. masses --      1.0996                 1.0879                 1.1031
 Frc consts  --      6.2942                 6.2581                 6.4029
 IR Inten    --     32.3825                30.6441                19.1463

 - Thermochemistry -
 -------------------
 Temperature   298.150 Kelvin.  Pressure   1.00000 Atm.
 Atom     1 has atomic number  8 and mass  15.99491

 Molecular mass:   232.18272 amu.
 Principal axes and moments of inertia in atomic units:
                           1         2         3
     Eigenvalues --  2815.399474826.157896132.37269
           X            0.99999  -0.00216   0.00337
           Y            0.00229   0.99924  -0.03882
           Z           -0.00328   0.03883   0.99924
 This molecule is an asymmetric top.
 Rotational symmetry number  1.
 Warning -- assumption of classical behavior for rotation
           may cause significant error
 Rotational temperatures (Kelvin)      0.03076     0.01795     0.01412
 Rotational constants (GHZ):           0.64102     0.37395     0.29430
 Zero-point vibrational energy     975232.9 (Joules/Mol)
                                  233.08627 (Kcal/Mol)
 Warning -- explicit consideration of  25 degrees of freedom as
           vibrations may cause significant error
 Vibrational temperatures:     42.24   110.65   117.00   144.49   178.44
          (Kelvin)            230.63   247.45   273.17   327.16   332.80
                              363.00   383.15   402.21   410.62   440.79
                              494.45   525.34   572.93   609.92   653.73
                              766.29   779.26   851.86   854.29   885.59
                              955.81   979.17  1053.82  1129.00  1162.32
                             1195.47  1208.71  1237.07  1247.41  1263.55
                             1301.44  1324.00  1332.95  1383.29  1387.76
                             1403.13  1414.87  1422.64  1443.68  1461.73
                             1507.89  1522.65  1537.44  1548.35  1567.23
                             1578.05  1607.83  1631.61  1639.93  1671.09
                             1682.22  1710.90  1722.29  1757.18  1772.22
                             1791.23  1825.19  1834.53  1849.23  1873.90
                             1895.26  1905.09  1914.20  1924.24  1928.78
                             1943.33  1945.84  1952.94  1967.86  1977.35
                             1990.12  2008.59  2019.41  2034.59  2058.52
                             2069.91  2163.67  2169.26  2187.33  2188.67
                             2196.46  2197.82  2200.65  2204.14  2209.15
                             2211.58  2496.28  2579.69  4350.01  4356.02
                             4365.69  4368.83  4371.24  4373.55  4375.46
                             4383.82  4385.70  4391.49  4392.75  4399.17
                             4421.50  4435.69  4447.90  4458.35  4460.15
                             4463.06  4469.50  4471.26  4472.73  4484.63
                             4495.67  4515.96

 Zero-point correction=                           0.371447 (Hartree/Particle)
 Thermal correction to Energy=                    0.387501
 Thermal correction to Enthalpy=                  0.388445
 Thermal correction to Gibbs Free Energy=         0.328550
 Sum of electronic and zero-point Energies=           -699.000878
 Sum of electronic and thermal Energies=              -698.984824
 Sum of electronic and thermal Enthalpies=            -698.983880
 Sum of electronic and thermal Free Energies=         -699.043775

                     E (Thermal)             CV                S
                      KCal/Mol        Cal/Mol-Kelvin    Cal/Mol-Kelvin
 Total                  243.160             64.489            126.060
 Electronic               0.000              0.000              0.000
 Translational            0.889              2.981             42.229
 Rotational               0.889              2.981             32.788
 Vibrational            241.383             58.527             51.043
 Vibration     1          0.593              1.984              5.872
 Vibration     2          0.599              1.965              3.968
 Vibration     3          0.600              1.962              3.859
 Vibration     4          0.604              1.949              3.446
 Vibration     5          0.610              1.929              3.037
 Vibration     6          0.622              1.891              2.546
 Vibration     7          0.626              1.877              2.414
 Vibration     8          0.633              1.854              2.229
 Vibration     9          0.651              1.799              1.899
 Vibration    10          0.653              1.793              1.869
 Vibration    11          0.664              1.759              1.714
 Vibration    12          0.672              1.735              1.620
 Vibration    13          0.680              1.711              1.536
 Vibration    14          0.683              1.701              1.501
 Vibration    15          0.697              1.662              1.382
 Vibration    16          0.722              1.588              1.195
 Vibration    17          0.738              1.544              1.100
 Vibration    18          0.764              1.474              0.969
 Vibration    19          0.786              1.418              0.879
 Vibration    20          0.813              1.351              0.783
 Vibration    21          0.888              1.178              0.581
 Vibration    22          0.897              1.158              0.562
 Vibration    23          0.950              1.049              0.463
 Vibration    24          0.951              1.045              0.461
 Vibration    25          0.975              0.999              0.424

 Normal termination of Gaussian 16 at Fri Feb 23 23:25:23 2024.
