 Gaussian 16, Revision A.03,
 Gaussian 16:  EM64M-G16RevA.03 25-Dec-2016

 ---------------------
 # freq b3lyp/6-31g(d)
 ---------------------

 ---------
 good luck
 ---------
 Symbolic Z-matrix:
 Charge =  0 Multiplicity = 1

                         Standard orientation:
 ---------------------------------------------------------------------
 Center     Atomic      Atomic             Coordinates (Angstroms)
 Number     Number       Type             X           Y           Z
 ---------------------------------------------------------------------
      1          8           0       -2.392845    2.043340    0.148439
      2          6           0       -2.204118    0.841135    0.191596
      3          6           0       -1.468921    0.177286    1.353106
      4          6           0       -0.409559   -0.869864    0.927567
      5          6           0        0.908756   -0.275996    0.435740
      6          6           0        1.051809    1.051095    0.008504
      7          6           0        2.285103    1.528059   -0.446856
      8          6           0        3.398358    0.690906   -0.480463
      9          6           0        3.272676   -0.632535   -0.050258
     10          6           0        2.042739   -1.104555    0.402207
     11          6           0       -1.029197   -1.842202   -0.111283
     12          6           0       -1.617077   -1.106993   -1.321819
     13          6           0       -2.705104   -0.102178   -0.892486
     14          1           0       -2.235024   -0.348781    1.942966
     15          1           0       -1.045398    0.957140    1.992302
     16          1           0       -0.169739   -1.463347    1.820160
     17          1           0        0.207349    1.731964    0.034340
     18          1           0        2.369691    2.561798   -0.771823
     19          1           0        4.356390    1.064562   -0.831832
     20          1           0        4.134705   -1.294686   -0.060933
     21          1           0        1.958942   -2.134575    0.744141
     22          1           0       -0.270193   -2.561603   -0.439094
     23          1           0       -1.822890   -2.422536    0.381976
     24          1           0       -0.817407   -0.574124   -1.851522
     25          1           0       -2.040780   -1.825974   -2.032971
     26          1           0       -3.074641    0.496533   -1.730191
     27          1           0       -3.561029   -0.658043   -0.478367
 ---------------------------------------------------------------------

 SCF Done:  E(RB3LYP) =  -540.938623270     A.U. after   14 cycles

 The electronic state is 1-A.
 Alpha  occ. eigenvalues --  -19.13472 -10.27168 -10.20605 -10.19624 -10.19297
 Alpha  occ. eigenvalues --  -10.19274 -10.19250 -10.19161 -10.18942 -10.18785
 Alpha  occ. eigenvalues --  -10.18763 -10.18719 -10.18520  -1.03381  -0.85940
 Alpha  occ. eigenvalues --   -0.82942  -0.77180  -0.74333  -0.73368  -0.71958
 Alpha  occ. eigenvalues --   -0.63786  -0.60787  -0.59756  -0.57153  -0.53196
 Alpha  occ. eigenvalues --   -0.50663  -0.47501  -0.46047  -0.46002  -0.45031
 Alpha  occ. eigenvalues --   -0.44322  -0.42842  -0.41732  -0.41349  -0.40331
 Alpha  occ. eigenvalues --   -0.38997  -0.37933  -0.36292  -0.35569  -0.34763
 Alpha  occ. eigenvalues --   -0.34372  -0.33056  -0.32241  -0.31884  -0.24807
 Alpha  occ. eigenvalues --   -0.24247  -0.23612
 Alpha virt. eigenvalues --   -0.01915   0.00172   0.00274   0.08209   0.10131
 Alpha virt. eigenvalues --    0.11246   0.12163   0.13920   0.14543   0.15554
 Alpha virt. eigenvalues --    0.15818   0.16056   0.16524   0.16742   0.17251

 Mulliken charges:
               1
     1  O   -0.460770
     2  C    0.468673
     3  C   -0.363580
     4  C   -0.180417
     5  C    0.167608
     6  C   -0.208326
     7  C   -0.133801
     8  C   -0.129270
     9  C   -0.128165
    10  C   -0.182846
    11  C   -0.264339
    12  C   -0.276467
    13  C   -0.342295
    14  H    0.158132
    15  H    0.170441
    16  H    0.140458
    17  H    0.156622
    18  H    0.133372
    19  H    0.128860
    20  H    0.128559
    21  H    0.121905
    22  H    0.145609
    23  H    0.130270
    24  H    0.158776
    25  H    0.143308
    26  H    0.164466
    27  H    0.153216
 Sum of Mulliken charges =  -0.00000

 Dipole moment (field-independent basis, Debye):
    X=              0.4817    Y=             -2.9486    Z=              0.0414  Tot=              2.9880
 Quadrupole moment (field-independent basis, Debye-Ang):
   XX=            -74.3422   YY=            -79.8620   ZZ=            -76.8009
   XY=              7.2778   XZ=             -1.3372   YZ=             -2.0482

  Exact polarizability: 145.092   0.863 124.344  -7.849  -9.753  83.253
 Approx polarizability: 202.873  -4.035 212.827 -18.000 -23.407 124.809

                      1                      2                      3
                      A                      A                      A
 Frequencies --     40.7325                77.6913                93.8663
 Red. masses --      4.0381                 3.8849                 6.7948
 Frc consts  --      0.0039                 0.0138                 0.0353
 IR Inten    --      0.5475                 2.2706                 2.9467

                      4                      5                      6
                      A                      A                      A
 Frequencies --    139.7748               222.4172               237.5626
 Red. masses --      3.0419                 3.3657                 3.0300
 Frc consts  --      0.0350                 0.0981                 0.1008
 IR Inten    --      0.3559                 0.5066                 1.9256

                      7                      8                      9
                      A                      A                      A
 Frequencies --    308.2029               353.1457               414.5730
 Red. masses --      2.7949                 2.5806                 2.7209
 Frc consts  --      0.1564                 0.1896                 0.2755
 IR Inten    --      0.6272                 0.3274                 1.9012

                     10                     11                     12
                      A                      A                      A
 Frequencies --    417.4471               454.2020               485.2093
 Red. masses --      3.0186                 3.4382                 2.3206
 Frc consts  --      0.3099                 0.4179                 0.3219
 IR Inten    --      0.0591                 4.2332                 6.5465

                     13                     14                     15
                      A                      A                      A
 Frequencies --    510.1568               529.1094               610.3053
 Red. masses --      3.0109                 3.7536                 4.0370
 Frc consts  --      0.4617                 0.6191                 0.8859
 IR Inten    --      6.0367                 2.1989                 2.3510

                     16                     17                     18
                      A                      A                      A
 Frequencies --    633.8477               702.3757               719.4234
 Red. masses --      6.2163                 3.0731                 1.8268
 Frc consts  --      1.4715                 0.8932                 0.5571
 IR Inten    --      0.2461                 2.0647                22.0376

                     19                     20                     21
                      A                      A                      A
 Frequencies --    734.5213               763.5452               778.1966
 Red. masses --      3.4761                 2.2036                 1.8791
 Frc consts  --      1.1050                 0.7569                 0.6705
 IR Inten    --      7.1159                 1.0655                24.8654

                     22                     23                     24
                      A                      A                      A
 Frequencies --    850.3901               865.1839               866.7332
 Red. masses --      2.4852                 1.3690                 1.6877
 Frc consts  --      1.0589                 0.6038                 0.7470
 IR Inten    --      1.1132                 0.0158                 0.0685

                     25                     26                     27
                      A                      A                      A
 Frequencies --    909.2219               924.6446               936.3844
 Red. masses --      1.6760                 2.1618                 1.4895
 Frc consts  --      0.8163                 1.0890                 0.7695
 IR Inten    --      2.8087                 3.1470                 6.3102

                     28                     29                     30
                      A                      A                      A
 Frequencies --    974.1759               998.0159              1004.2601
 Red. masses --      1.3399                 1.3951                 2.1229
 Frc consts  --      0.7492                 0.8187                 1.2615
 IR Inten    --      0.2647                 1.0654                 1.1369

                     31                     32                     33
                      A                      A                      A
 Frequencies --   1017.1993              1031.8192              1059.9312
 Red. masses --      6.0489                 1.8964                 2.4475
 Frc consts  --      3.6876                 1.1895                 1.6200
 IR Inten    --      0.2763                 5.1212                 5.1148

                     34                     35                     36
                      A                      A                      A
 Frequencies --   1080.4870              1092.2157              1121.9195
 Red. masses --      1.8857                 1.6128                 1.7108
 Frc consts  --      1.2971                 1.1335                 1.2687
 IR Inten    --      1.7961                 6.3093                 3.3426

                     37                     38                     39
                      A                      A                      A
 Frequencies --   1129.5788              1171.0272              1193.9006
 Red. masses --      1.4284                 1.6767                 1.1052
 Frc consts  --      1.0738                 1.3547                 0.9282
 IR Inten    --     19.2691                 5.4745                 0.1789

                     40                     41                     42
                      A                      A                      A
 Frequencies --   1200.9091              1225.5891              1247.6132
 Red. masses --      1.9385                 1.1523                 1.3749
 Frc consts  --      1.6472                 1.0198                 1.2609
 IR Inten    --      1.4928                 1.8374                11.5027

                     43                     44                     45
                      A                      A                      A
 Frequencies --   1252.2859              1281.7529              1315.8543
 Red. masses --      1.7330                 1.3407                 1.4505
 Frc consts  --      1.6013                 1.2978                 1.4798
 IR Inten    --     26.4149                 2.7475                 2.1186

                     46                     47                     48
                      A                      A                      A
 Frequencies --   1343.2713              1350.8506              1361.9941
 Red. masses --      2.3580                 2.0829                 1.4685
 Frc consts  --      2.5068                 2.2394                 1.6050
 IR Inten    --      4.6056                10.4272                 3.8567

                     49                     50                     51
                      A                      A                      A
 Frequencies --   1377.4734              1386.2746              1396.8119
 Red. masses --      1.5211                 1.3877                 1.4469
 Frc consts  --      1.7005                 1.5713                 1.6632
 IR Inten    --      1.7723                10.1447                 3.0173

                     52                     53                     54
                      A                      A                      A
 Frequencies --   1411.6938              1488.9987              1495.8916
 Red. masses --      1.4788                 1.1122                 1.2039
 Frc consts  --      1.7363                 1.4528                 1.5872
 IR Inten    --      4.8283                 7.2974                 5.2619

                     55                     56                     57
                      A                      A                      A
 Frequencies --   1499.8573              1518.1297              1528.6697
 Red. masses --      1.7743                 1.0847                 1.0963
 Frc consts  --      2.3516                 1.4729                 1.5094
 IR Inten    --     13.6359                 7.4051                 5.0469

                     58                     59                     60
                      A                      A                      A
 Frequencies --   1549.4678              1642.0461              1664.8355
 Red. masses --      2.1314                 5.2290                 5.3865
 Frc consts  --      3.0149                 8.3069                 8.7963
 IR Inten    --     12.6157                 1.7550                 4.9366

                     61                     62                     63
                      A                      A                      A
 Frequencies --   1809.0013              3016.9461              3022.1387
 Red. masses --     10.9900                 1.0699                 1.0741
 Frc consts  --     21.1897                 5.7375                 5.7799
 IR Inten    --    156.0089                 1.2167                26.8168

                     64                     65                     66
                      A                      A                      A
 Frequencies --   3024.8691              3038.8427              3052.4396
 Red. masses --      1.0692                 1.0789                 1.0605
 Frc consts  --      5.7641                 5.8699                 5.8216
 IR Inten    --     11.2496                55.4023                24.4346

                     67                     68                     69
                      A                      A                      A
 Frequencies --   3087.8962              3092.2129              3117.6055
 Red. masses --      1.0948                 1.1041                 1.0939
 Frc consts  --      6.1505                 6.2199                 6.2641
 IR Inten    --     29.8342                47.5501                18.8133

                     70                     71                     72
                      A                      A                      A
 Frequencies --   3120.4584              3167.4021              3183.0642
 Red. masses --      1.0937                 1.0869                 1.0867
 Frc consts  --      6.2747                 6.4248                 6.4868
 IR Inten    --     12.2121                10.2265                 1.0257

                     73                     74                     75
                      A                      A                      A
 Frequencies --   3192.9283              3206.1113              3221.1158
 Red. masses --      1.0918                 1.0962                 1.0927
 Frc consts  --      6.5579                 6.6388                 6.6796
 IR Inten    --     28.6254                28.5047                 4.4140

 - Thermochemistry -
 -------------------
 Temperature   298.150 Kelvin.  Pressure   1.00000 Atm.
 Atom     1 has atomic number  8 and mass  15.99491

 Molecular mass:   174.10447 amu.
 Principal axes and moments of inertia in atomic units:
                           1         2         3
     Eigenvalues --  1220.288893188.978913713.83020
           X            0.99978   0.02113   0.00149
           Y           -0.02112   0.99974  -0.00843
           Z           -0.00167   0.00840   0.99996
 This molecule is an asymmetric top.
 Rotational symmetry number  1.
 Warning -- assumption of classical behavior for rotation
           may cause significant error
 Rotational temperatures (Kelvin)      0.07098     0.02716     0.02332
 Rotational constants (GHZ):           1.47895     0.56593     0.48595
 Zero-point vibrational energy     612169.2 (Joules/Mol)
                                  146.31195 (Kcal/Mol)
 Warning -- explicit consideration of  15 degrees of freedom as
           vibrations may cause significant error
 Vibrational temperatures:     58.60   111.78   135.05   201.10   320.01
          (Kelvin)            341.80   443.44   508.10   596.48   600.61
                              653.50   698.11   734.00   761.27   878.09
                              911.97  1010.56  1035.09  1056.81  1098.57
                             1119.65  1223.52  1244.81  1247.04  1308.17
                             1330.36  1347.25  1401.62  1435.92  1444.91
                             1463.52  1484.56  1525.00  1554.58  1571.45
                             1614.19  1625.21  1684.85  1717.76  1727.84
                             1763.35  1795.04  1801.76  1844.16  1893.22
                             1932.67  1943.57  1959.61  1981.88  1994.54
                             2009.70  2031.11  2142.34  2152.25  2157.96
                             2184.25  2199.41  2229.34  2362.54  2395.33
                             2602.75  4340.71  4348.18  4352.11  4372.22
                             4391.78  4442.79  4449.00  4485.54  4489.64
                             4557.19  4579.72  4593.91  4612.88  4634.47

 Zero-point correction=                           0.233163 (Hartree/Particle)
 Thermal correction to Energy=                    0.243980
 Thermal correction to Enthalpy=                  0.244924
 Thermal correction to Gibbs Free Energy=         0.195948
 Sum of electronic and zero-point Energies=           -540.705460
 Sum of electronic and thermal Energies=              -540.694643
 Sum of electronic and thermal Enthalpies=            -540.693699
 Sum of electronic and thermal Free Energies=         -540.742676

                     E (Thermal)             CV                S
                      KCal/Mol        Cal/Mol-Kelvin    Cal/Mol-Kelvin
 Total                  153.100             43.438            103.080
 Electronic               0.000              0.000              0.000
 Translational            0.889              2.981             41.371
 Rotational               0.889              2.981             31.047
 Vibrational            151.322             37.476             30.662
 Vibration     1          0.594              1.981              5.223
 Vibration     2          0.599              1.964              3.948
 Vibration     3          0.603              1.954              3.578
 Vibration     4          0.615              1.914              2.807
 Vibration     5          0.648              1.807              1.939
 Vibration     6          0.656              1.783              1.821
 Vibration     7          0.698              1.658              1.372
 Vibration     8          0.729              1.569              1.152
 Vibration     9          0.778              1.439              0.911
 Vibration    10          0.780              1.432              0.901
 Vibration    11          0.813              1.352              0.783
 Vibration    12          0.841              1.283              0.696
 Vibration    13          0.865              1.227              0.633
 Vibration    14          0.884              1.186              0.589
 Vibration    15          0.969              1.010              0.432

 Normal termination of Gaussian 16 at Sat Feb 24 04:20:32 2024.
