 Gaussian 16, Revision A.03,
 Gaussian 16:  EM64M-G16RevA.03 25-Dec-2016

 ---------------------
 # freq b3lyp/6-31g(d)
 ---------------------

 ---------
 good luck
 ---------
 Symbolic Z-matrix:
 Charge =  0 Multiplicity = 1

                         Standard orientation:
 ---------------------------------------------------------------------
 Center     Atomic      Atomic             Coordinates (Angstroms)
 Number     Number       Type             X           Y           Z
 ---------------------------------------------------------------------
      1          8           0       -3.316114   -1.834805    0.067934
      2          6           0       -2.635079   -0.847038    0.268177
      3          6           0       -1.128430   -0.927392    0.485975
      4          6           0       -0.351755    0.059543   -0.427173
      5          6           0        1.148260   -0.004849   -0.186033
      6          6           0        1.708701    0.361061    1.047164
      7          6           0        3.086384    0.302401    1.255294
      8          6           0        3.934276   -0.126618    0.231794
      9          6           0        3.391546   -0.494980   -0.999140
     10          6           0        2.011612   -0.432976   -1.202419
     11          6           0       -0.923782    1.486845   -0.282531
     12          6           0       -2.427631    1.527526   -0.587955
     13          6           0       -3.220972    0.558157    0.312008
     14          1           0       -0.925227   -0.675044    1.537564
     15          1           0       -0.804591   -1.959582    0.325016
     16          1           0       -0.528677   -0.256090   -1.465439
     17          1           0        1.064681    0.696544    1.856831
     18          1           0        3.498502    0.591612    2.218652
     19          1           0        5.007731   -0.173562    0.394011
     20          1           0        4.040455   -0.831734   -1.803454
     21          1           0        1.596912   -0.722682   -2.165614
     22          1           0       -0.746026    1.851958    0.739163
     23          1           0       -0.383170    2.165309   -0.953278
     24          1           0       -2.592814    1.257664   -1.640213
     25          1           0       -2.813853    2.546192   -0.463779
     26          1           0       -4.277266    0.506022    0.032715
     27          1           0       -3.166535    0.911768    1.353375
 ---------------------------------------------------------------------

 SCF Done:  E(RB3LYP) =  -540.940721911     A.U. after   14 cycles

 The electronic state is 1-A.
 Alpha  occ. eigenvalues --  -19.13363 -10.26964 -10.20580 -10.19801 -10.19630
 Alpha  occ. eigenvalues --  -10.19247 -10.19235 -10.19191 -10.19160 -10.19140
 Alpha  occ. eigenvalues --  -10.19102 -10.19048 -10.19008  -1.03235  -0.86165
 Alpha  occ. eigenvalues --   -0.83163  -0.77513  -0.74516  -0.73451  -0.71993
 Alpha  occ. eigenvalues --   -0.63689  -0.61074  -0.60168  -0.57210  -0.53277
 Alpha  occ. eigenvalues --   -0.51099  -0.47799  -0.46719  -0.45942  -0.44337
 Alpha  occ. eigenvalues --   -0.43667  -0.43530  -0.42252  -0.41727  -0.40342
 Alpha  occ. eigenvalues --   -0.39600  -0.36817  -0.35994  -0.35892  -0.35602
 Alpha  occ. eigenvalues --   -0.34416  -0.33053  -0.32775  -0.32061  -0.25140
 Alpha  occ. eigenvalues --   -0.24746  -0.23334
 Alpha virt. eigenvalues --   -0.01734  -0.00193   0.00176   0.08479   0.09425
 Alpha virt. eigenvalues --    0.09649   0.12617   0.13515   0.14006   0.15382
 Alpha virt. eigenvalues --    0.15571   0.15917   0.16485   0.16816   0.17160

 Mulliken charges:
               1
     1  O   -0.445164
     2  C    0.450483
     3  C   -0.343972
     4  C   -0.193749
     5  C    0.188457
     6  C   -0.184034
     7  C   -0.130329
     8  C   -0.129752
     9  C   -0.126622
    10  C   -0.194401
    11  C   -0.262476
    12  C   -0.274899
    13  C   -0.342460
    14  H    0.153570
    15  H    0.168680
    16  H    0.136222
    17  H    0.123170
    18  H    0.130112
    19  H    0.130149
    20  H    0.130863
    21  H    0.126875
    22  H    0.134227
    23  H    0.147377
    24  H    0.145986
    25  H    0.145164
    26  H    0.163839
    27  H    0.152682
 Sum of Mulliken charges =  -0.00000

 Dipole moment (field-independent basis, Debye):
    X=              1.7147    Y=              2.4905    Z=              0.2782  Tot=              3.0365
 Quadrupole moment (field-independent basis, Debye-Ang):
   XX=            -81.0909   YY=            -83.3211   ZZ=            -72.0960
   XY=            -10.2018   XZ=             -0.6218   YZ=              1.8218

  Exact polarizability: 162.877  -3.233  89.178   2.340  11.613 108.554
 Approx polarizability: 218.304   0.991 136.122   5.034  28.881 187.233

                      1                      2                      3
                      A                      A                      A
 Frequencies --     34.6578                79.6200                84.1406
 Red. masses --      3.9766                 4.1448                 3.9552
 Frc consts  --      0.0028                 0.0155                 0.0165
 IR Inten    --      0.6477                 1.2807                 1.1294

                      4                      5                      6
                      A                      A                      A
 Frequencies --    103.9212               199.6397               263.9310
 Red. masses --      3.3416                 2.9595                 3.3293
 Frc consts  --      0.0213                 0.0695                 0.1366
 IR Inten    --      1.1632                 0.8019                 0.2603

                      7                      8                      9
                      A                      A                      A
 Frequencies --    277.6215               295.0864               402.9381
 Red. masses --      3.5891                 2.8159                 2.9406
 Frc consts  --      0.1630                 0.1445                 0.2813
 IR Inten    --      1.3490                 0.7368                 1.3466

                     10                     11                     12
                      A                      A                      A
 Frequencies --    417.2382               449.7284               472.0562
 Red. masses --      2.9839                 3.7397                 1.6883
 Frc consts  --      0.3061                 0.4456                 0.2217
 IR Inten    --      0.0023                 3.4098                 0.5962

                     13                     14                     15
                      A                      A                      A
 Frequencies --    500.9370               548.1096               606.5473
 Red. masses --      3.1488                 3.2192                 4.7016
 Frc consts  --      0.4655                 0.5698                 1.0191
 IR Inten    --     11.8308                 6.8312                 0.3497

                     16                     17                     18
                      A                      A                      A
 Frequencies --    635.2185               659.9054               715.4581
 Red. masses --      6.3592                 3.8566                 1.8158
 Frc consts  --      1.5118                 0.9895                 0.5476
 IR Inten    --      0.0260                 3.5280                24.4736

                     19                     20                     21
                      A                      A                      A
 Frequencies --    762.0901               771.6336               806.6115
 Red. masses --      2.0062                 1.9638                 3.4371
 Frc consts  --      0.6865                 0.6889                 1.3176
 IR Inten    --      1.8391                23.6719                 3.7845

                     22                     23                     24
                      A                      A                      A
 Frequencies --    858.6567               867.8563               879.5185
 Red. masses --      1.2506                 1.6692                 2.1354
 Frc consts  --      0.5432                 0.7407                 0.9732
 IR Inten    --      0.0057                 0.4373                 0.5342

                     25                     26                     27
                      A                      A                      A
 Frequencies --    895.3200               918.6593               929.9548
 Red. masses --      1.7020                 2.1066                 1.6725
 Frc consts  --      0.8038                 1.0475                 0.8522
 IR Inten    --      3.9112                 4.1354                 1.9437

                     28                     29                     30
                      A                      A                      A
 Frequencies --    965.3632               990.6606               994.7516
 Red. masses --      1.3498                 2.4275                 1.2859
 Frc consts  --      0.7412                 1.4036                 0.7497
 IR Inten    --      0.0046                 5.9394                 0.6443

                     31                     32                     33
                      A                      A                      A
 Frequencies --   1017.8457              1046.0806              1060.9532
 Red. masses --      6.1899                 1.9108                 2.1676
 Frc consts  --      3.7783                 1.2320                 1.4376
 IR Inten    --      0.9210                 7.2695                 1.4411

                     34                     35                     36
                      A                      A                      A
 Frequencies --   1075.6179              1090.2733              1103.4411
 Red. masses --      1.1908                 2.8429                 1.7845
 Frc consts  --      0.8117                 1.9911                 1.2802
 IR Inten    --     10.5025                 2.7031                 3.1213

                     37                     38                     39
                      A                      A                      A
 Frequencies --   1133.2163              1193.2099              1211.4233
 Red. masses --      1.9453                 1.1005                 1.6952
 Frc consts  --      1.4719                 0.9232                 1.4658
 IR Inten    --      2.7484                 0.0635                18.4010

                     40                     41                     42
                      A                      A                      A
 Frequencies --   1216.9774              1224.2694              1248.5256
 Red. masses --      1.1393                 2.1743                 1.7394
 Frc consts  --      0.9942                 1.9201                 1.5975
 IR Inten    --      0.2777                 0.2704                43.3702

                     43                     44                     45
                      A                      A                      A
 Frequencies --   1254.5408              1285.1351              1305.9286
 Red. masses --      1.5171                 1.5939                 1.2649
 Frc consts  --      1.4068                 1.5510                 1.2710
 IR Inten    --      0.8086                10.0149                 0.9914

                     46                     47                     48
                      A                      A                      A
 Frequencies --   1331.1331              1354.9556              1364.0913
 Red. masses --      1.7926                 1.5915                 1.3119
 Frc consts  --      1.8715                 1.7214                 1.4382
 IR Inten    --     10.1033                 5.8373                 5.1395

                     49                     50                     51
                      A                      A                      A
 Frequencies --   1366.9376              1380.3998              1392.1840
 Red. masses --      2.0905                 1.3439                 1.4710
 Frc consts  --      2.3014                 1.5088                 1.6798
 IR Inten    --      1.9809                 6.1413                13.7233

                     52                     53                     54
                      A                      A                      A
 Frequencies --   1414.7250              1490.8531              1498.3675
 Red. masses --      1.4885                 1.1005                 1.0885
 Frc consts  --      1.7553                 1.4412                 1.4398
 IR Inten    --      4.0200                 5.5660                 6.2734

                     55                     56                     57
                      A                      A                      A
 Frequencies --   1503.2316              1517.9892              1528.3602
 Red. masses --      2.1121                 1.0865                 1.0984
 Frc consts  --      2.8120                 1.4751                 1.5116
 IR Inten    --      5.1744                 6.6512                 1.8851

                     58                     59                     60
                      A                      A                      A
 Frequencies --   1546.5465              1643.5922              1664.2972
 Red. masses --      2.1841                 5.3560                 5.5599
 Frc consts  --      3.0779                 8.5247                 9.0736
 IR Inten    --     11.2960                 1.4575                 5.7890

                     61                     62                     63
                      A                      A                      A
 Frequencies --   1817.6897              3017.2392              3021.3059
 Red. masses --     10.9987                 1.0771                 1.0728
 Frc consts  --     21.4107                 5.7771                 5.7697
 IR Inten    --    208.6537                 5.1411                 2.6352

                     64                     65                     66
                      A                      A                      A
 Frequencies --   3030.6766              3036.2600              3041.6774
 Red. masses --      1.0670                 1.0693                 1.0630
 Frc consts  --      5.7740                 5.8079                 5.7944
 IR Inten    --     10.9422                 8.2461                56.6697

                     67                     68                     69
                      A                      A                      A
 Frequencies --   3083.2141              3087.6111              3119.2340
 Red. masses --      1.0960                 1.1030                 1.0943
 Frc consts  --      6.1383                 6.1953                 6.2729
 IR Inten    --     39.6140                37.9459                22.8527

                     70                     71                     72
                      A                      A                      A
 Frequencies --   3122.2773              3173.4070              3175.7175
 Red. masses --      1.0955                 1.0856                 1.0873
 Frc consts  --      6.2923                 6.4415                 6.4605
 IR Inten    --     12.7962                11.4799                 4.9625

                     73                     74                     75
                      A                      A                      A
 Frequencies --   3187.6467              3196.3304              3208.5715
 Red. masses --      1.0896                 1.0938                 1.0979
 Frc consts  --      6.5230                 6.5841                 6.6591
 IR Inten    --      7.7170                40.8729                22.9554

 - Thermochemistry -
 -------------------
 Temperature   298.150 Kelvin.  Pressure   1.00000 Atm.
 Atom     1 has atomic number  8 and mass  15.99491

 Molecular mass:   174.10447 amu.
 Principal axes and moments of inertia in atomic units:
                           1         2         3
     Eigenvalues --   945.203354374.481294590.17919
           X            0.99983  -0.01855   0.00052
           Y            0.01853   0.99948   0.02621
           Z           -0.00100  -0.02619   0.99966
 This molecule is an asymmetric top.
 Rotational symmetry number  1.
 Warning -- assumption of classical behavior for rotation
           may cause significant error
 Rotational temperatures (Kelvin)      0.09164     0.01980     0.01887
 Rotational constants (GHZ):           1.90937     0.41256     0.39317
 Zero-point vibrational energy     611123.0 (Joules/Mol)
                                  146.06191 (Kcal/Mol)
 Warning -- explicit consideration of  15 degrees of freedom as
           vibrations may cause significant error
 Vibrational temperatures:     49.86   114.56   121.06   149.52   287.24
          (Kelvin)            379.74   399.44   424.56   579.74   600.31
                              647.06   679.18   720.74   788.61   872.69
                              913.94   949.46  1029.38  1096.48  1110.21
                             1160.53  1235.42  1248.65  1265.43  1288.17
                             1321.75  1338.00  1388.94  1425.34  1431.23
                             1464.45  1505.08  1526.48  1547.57  1568.66
                             1587.61  1630.45  1716.76  1742.97  1750.96
                             1761.45  1796.35  1805.00  1849.02  1878.94
                             1915.20  1949.48  1962.62  1966.72  1986.09
                             2003.04  2035.47  2145.01  2155.82  2162.81
                             2184.05  2198.97  2225.14  2364.76  2394.55
                             2615.25  4341.13  4346.99  4360.47  4368.50
                             4376.30  4436.06  4442.38  4487.88  4492.26
                             4565.82  4569.15  4586.31  4598.81  4616.42

 Zero-point correction=                           0.232764 (Hartree/Particle)
 Thermal correction to Energy=                    0.243802
 Thermal correction to Enthalpy=                  0.244746
 Thermal correction to Gibbs Free Energy=         0.194872
 Sum of electronic and zero-point Energies=           -540.707957
 Sum of electronic and thermal Energies=              -540.696920
 Sum of electronic and thermal Enthalpies=            -540.695976
 Sum of electronic and thermal Free Energies=         -540.745850

                     E (Thermal)             CV                S
                      KCal/Mol        Cal/Mol-Kelvin    Cal/Mol-Kelvin
 Total                  152.988             43.670            104.968
 Electronic               0.000              0.000              0.000
 Translational            0.889              2.981             41.371
 Rotational               0.889              2.981             31.318
 Vibrational            151.210             37.709             32.279
 Vibration     1          0.594              1.983              5.543
 Vibration     2          0.600              1.963              3.900
 Vibration     3          0.601              1.960              3.792
 Vibration     4          0.605              1.946              3.379
 Vibration     5          0.638              1.840              2.136
 Vibration     6          0.670              1.739              1.636
 Vibration     7          0.679              1.715              1.548
 Vibration     8          0.689              1.683              1.445
 Vibration     9          0.768              1.464              0.952
 Vibration    10          0.780              1.433              0.901
 Vibration    11          0.809              1.361              0.797
 Vibration    12          0.829              1.312              0.732
 Vibration    13          0.856              1.248              0.656
 Vibration    14          0.903              1.144              0.548
 Vibration    15          0.965              1.018              0.439

 Normal termination of Gaussian 16 at Sat Feb 24 04:17:37 2024.
