 Gaussian 16, Revision A.03,
 Gaussian 16:  EM64M-G16RevA.03 25-Dec-2016

 ---------------------
 # freq b3lyp/6-31g(d)
 ---------------------

 ---------
 good luck
 ---------
 Symbolic Z-matrix:
 Charge =  0 Multiplicity = 1

                         Standard orientation:
 ---------------------------------------------------------------------
 Center     Atomic      Atomic             Coordinates (Angstroms)
 Number     Number       Type             X           Y           Z
 ---------------------------------------------------------------------
      1          8           0        2.369835    1.383848   -1.086762
      2          6           0        1.345036    0.928732   -0.622676
      3          6           0        1.244089   -0.424459    0.111510
      4          6           0        2.006081   -1.513734   -0.667363
      5          6           0        1.971825   -0.251548    1.470135
      6          6           0       -0.303888   -0.647023    0.231156
      7          6           0       -0.707277   -1.530973    1.420373
      8          6           0       -0.911364   -1.239568   -1.073729
      9          6           0       -2.377564   -0.773271   -1.105126
     10          6           0       -2.384817    0.597000   -0.379253
     11          6           0       -0.969744    0.796766    0.241550
     12          6           0       -1.093003    1.490699    1.608731
     13          6           0       -0.021014    1.610408   -0.675707
     14          1           0        1.968999   -2.470438   -0.133649
     15          1           0        1.610010   -1.670626   -1.673669
     16          1           0        3.054635   -1.219401   -0.770819
     17          1           0        3.002153    0.067969    1.284414
     18          1           0        1.504967    0.491864    2.121237
     19          1           0        2.002874   -1.201605    2.014106
     20          1           0       -1.793040   -1.675699    1.459928
     21          1           0       -0.251096   -2.524800    1.332715
     22          1           0       -0.399419   -1.109936    2.381386
     23          1           0       -0.809923   -2.329610   -1.120555
     24          1           0       -0.387570   -0.840571   -1.951021
     25          1           0       -3.018972   -1.487372   -0.576606
     26          1           0       -2.762029   -0.711754   -2.128659
     27          1           0       -2.627302    1.423429   -1.057429
     28          1           0       -3.149797    0.613293    0.405380
     29          1           0       -1.636985    2.436104    1.491042
     30          1           0       -0.123305    1.734764    2.053876
     31          1           0       -1.651471    0.880927    2.326378
     32          1           0       -0.350418    1.597815   -1.723492
     33          1           0        0.068849    2.666693   -0.398068
 ---------------------------------------------------------------------

 SCF Done:  E(RB3LYP) =  -544.550354414     A.U. after   14 cycles

 The electronic state is 1-A.
 Alpha  occ. eigenvalues --  -19.13245 -10.26356 -10.19890 -10.19785 -10.19683
 Alpha  occ. eigenvalues --  -10.18514 -10.18166 -10.18062 -10.18047 -10.17874
 Alpha  occ. eigenvalues --  -10.17820 -10.17685 -10.17339  -1.03185  -0.86724
 Alpha  occ. eigenvalues --   -0.79600  -0.77035  -0.73075  -0.71765  -0.68564
 Alpha  occ. eigenvalues --   -0.66847  -0.63943  -0.61334  -0.56083  -0.52558
 Alpha  occ. eigenvalues --   -0.50616  -0.48169  -0.47340  -0.44945  -0.44137
 Alpha  occ. eigenvalues --   -0.43680  -0.42848  -0.41576  -0.41060  -0.40429
 Alpha  occ. eigenvalues --   -0.39420  -0.38774  -0.38223  -0.37875  -0.36935
 Alpha  occ. eigenvalues --   -0.35734  -0.35461  -0.33461  -0.33289  -0.32242
 Alpha  occ. eigenvalues --   -0.31861  -0.31200  -0.30456  -0.29122  -0.23048
 Alpha virt. eigenvalues --   -0.01332   0.06348   0.09448   0.09970   0.10971
 Alpha virt. eigenvalues --    0.12113   0.13267   0.13922   0.14226   0.14837
 Alpha virt. eigenvalues --    0.15299   0.15790   0.15929   0.17024   0.18151

 Mulliken charges:
               1
     1  O   -0.466811
     2  C    0.448081
     3  C    0.015641
     4  C   -0.453796
     5  C   -0.471987
     6  C    0.072005
     7  C   -0.480125
     8  C   -0.292154
     9  C   -0.279652
    10  C   -0.294824
    11  C    0.108661
    12  C   -0.482465
    13  C   -0.390338
    14  H    0.139066
    15  H    0.148002
    16  H    0.165154
    17  H    0.166133
    18  H    0.150278
    19  H    0.150414
    20  H    0.144627
    21  H    0.143948
    22  H    0.151465
    23  H    0.138780
    24  H    0.136078
    25  H    0.140212
    26  H    0.137657
    27  H    0.138155
    28  H    0.136596
    29  H    0.146273
    30  H    0.146926
    31  H    0.147645
    32  H    0.170949
    33  H    0.169406
 Sum of Mulliken charges =  -0.00000

 Dipole moment (field-independent basis, Debye):
    X=             -2.4107    Y=             -1.1146    Z=              1.0624  Tot=              2.8605
 Quadrupole moment (field-independent basis, Debye-Ang):
   XX=            -87.8147   YY=            -81.8521   ZZ=            -81.4941
   XY=             -4.8836   XZ=              4.2132   YZ=              1.7160

  Exact polarizability: 128.165  -1.720 116.437   0.344  -1.085 110.336
 Approx polarizability: 177.996   2.859 168.947  -4.613  -5.480 164.383

                      1                      2                      3
                      A                      A                      A
 Frequencies --     49.6916                79.0931               176.6041
 Red. masses --      4.1102                 2.0024                 2.2484
 Frc consts  --      0.0060                 0.0074                 0.0413
 IR Inten    --      3.4401                 0.0394                 0.1292

                      4                      5                      6
                      A                      A                      A
 Frequencies --    186.3680               207.4506               230.4011
 Red. masses --      1.3230                 1.9917                 1.4960
 Frc consts  --      0.0271                 0.0505                 0.0468
 IR Inten    --      0.6711                 1.3695                 0.0556

                      7                      8                      9
                      A                      A                      A
 Frequencies --    243.6119               264.4934               273.7206
 Red. masses --      1.5004                 1.5171                 1.3244
 Frc consts  --      0.0525                 0.0625                 0.0585
 IR Inten    --      0.0916                 0.7029                 0.1821

                     10                     11                     12
                      A                      A                      A
 Frequencies --    295.5549               303.1022               322.4161
 Red. masses --      2.0784                 1.9242                 2.0012
 Frc consts  --      0.1070                 0.1042                 0.1226
 IR Inten    --      1.8098                 0.0756                 1.4928

                     13                     14                     15
                      A                      A                      A
 Frequencies --    335.0328               349.9401               366.4224
 Red. masses --      2.6063                 1.9391                 2.6290
 Frc consts  --      0.1724                 0.1399                 0.2080
 IR Inten    --      0.8156                 0.3789                 0.3615

                     16                     17                     18
                      A                      A                      A
 Frequencies --    368.6208               436.6933               492.8182
 Red. masses --      2.3086                 2.9642                 2.7768
 Frc consts  --      0.1848                 0.3331                 0.3973
 IR Inten    --      0.3697                 1.1069                 0.4162

                     19                     20                     21
                      A                      A                      A
 Frequencies --    513.5679               533.0406               597.6821
 Red. masses --      3.7110                 3.1433                 2.8745
 Frc consts  --      0.5767                 0.5262                 0.6050
 IR Inten    --      0.9744                 3.7519                 0.3427

                     22                     23                     24
                      A                      A                      A
 Frequencies --    618.0145               640.8919               661.2415
 Red. masses --      3.0999                 3.4130                 2.6581
 Frc consts  --      0.6976                 0.8259                 0.6848
 IR Inten    --      2.1762                 0.6055                 2.6600

                     25                     26                     27
                      A                      A                      A
 Frequencies --    757.3327               792.6396               846.3010
 Red. masses --      2.4749                 1.7742                 1.6286
 Frc consts  --      0.8363                 0.6567                 0.6873
 IR Inten    --      1.4499                 2.3705                 1.4854

                     28                     29                     30
                      A                      A                      A
 Frequencies --    868.2584               892.2099               897.7157
 Red. masses --      2.0676                 2.2641                 2.2767
 Frc consts  --      0.9184                 1.0619                 1.0810
 IR Inten    --      2.0323                 0.9884                 0.8383

                     31                     32                     33
                      A                      A                      A
 Frequencies --    916.7108               950.5010               960.4910
 Red. masses --      2.6264                 1.8587                 1.6633
 Frc consts  --      1.3004                 0.9894                 0.9041
 IR Inten    --      0.1731                 0.0163                 1.0801

                     34                     35                     36
                      A                      A                      A
 Frequencies --    965.3183               977.4600              1015.7053
 Red. masses --      1.5967                 1.7506                 1.7909
 Frc consts  --      0.8766                 0.9854                 1.0886
 IR Inten    --      0.5173                 1.8320                 0.5748

                     37                     38                     39
                      A                      A                      A
 Frequencies --   1027.0106              1043.4375              1079.0538
 Red. masses --      1.3724                 2.2016                 1.7293
 Frc consts  --      0.8529                 1.4123                 1.1863
 IR Inten    --      0.3911                 1.1718                 1.8730

                     40                     41                     42
                      A                      A                      A
 Frequencies --   1091.9098              1106.1874              1133.2574
 Red. masses --      2.9827                 1.4490                 1.6885
 Frc consts  --      2.0952                 1.0447                 1.2776
 IR Inten    --     32.5896                 0.5126                25.2603

                     43                     44                     45
                      A                      A                      A
 Frequencies --   1153.5289              1175.4406              1196.6925
 Red. masses --      2.2183                 2.4533                 2.1425
 Frc consts  --      1.7391                 1.9972                 1.8077
 IR Inten    --     11.3395                 3.5834                 6.6406

                     46                     47                     48
                      A                      A                      A
 Frequencies --   1207.4450              1226.5062              1240.3067
 Red. masses --      2.3840                 2.2319                 1.5829
 Frc consts  --      2.0478                 1.9782                 1.4347
 IR Inten    --      1.4978                13.3323                 1.9416

                     49                     50                     51
                      A                      A                      A
 Frequencies --   1268.1892              1282.4798              1289.1945
 Red. masses --      1.9083                 1.9783                 1.6830
 Frc consts  --      1.8083                 1.9171                 1.6480
 IR Inten    --      1.4045                 6.2419                14.2883

                     52                     53                     54
                      A                      A                      A
 Frequencies --   1300.9719              1311.0790              1353.2560
 Red. masses --      1.6513                 2.3827                 1.3820
 Frc consts  --      1.6467                 2.4131                 1.4912
 IR Inten    --      0.3492                 0.8180                 0.5427

                     55                     56                     57
                      A                      A                      A
 Frequencies --   1357.1740              1370.7090              1419.8774
 Red. masses --      1.5004                 1.4098                 1.2071
 Frc consts  --      1.6282                 1.5607                 1.4338
 IR Inten    --      0.4339                 0.1367                 2.1311

                     58                     59                     60
                      A                      A                      A
 Frequencies --   1436.1431              1438.6961              1451.7248
 Red. masses --      1.2387                 1.2232                 1.2022
 Frc consts  --      1.5052                 1.4917                 1.4928
 IR Inten    --      7.2059                 9.7412                 8.8711

                     61                     62                     63
                      A                      A                      A
 Frequencies --   1481.2744              1509.8105              1519.0513
 Red. masses --      1.0844                 1.0487                 1.0588
 Frc consts  --      1.4019                 1.4085                 1.4395
 IR Inten    --      7.4277                 1.7897                 4.5773

                     64                     65                     66
                      A                      A                      A
 Frequencies --   1520.5756              1522.2225              1526.0864
 Red. masses --      1.0525                 1.0660                 1.0600
 Frc consts  --      1.4338                 1.4553                 1.4545
 IR Inten    --      3.3170                 3.2556                 4.6568

                     67                     68                     69
                      A                      A                      A
 Frequencies --   1527.7329              1536.7988              1540.5894
 Red. masses --      1.0537                 1.0625                 1.0536
 Frc consts  --      1.4490                 1.4784                 1.4733
 IR Inten    --      0.7699                 2.0693                 1.1551

                     70                     71                     72
                      A                      A                      A
 Frequencies --   1544.7936              1548.8377              1551.4368
 Red. masses --      1.0634                 1.0566                 1.0828
 Frc consts  --      1.4952                 1.4933                 1.5356
 IR Inten    --      2.8089                 3.9951                 6.6331

                     73                     74                     75
                      A                      A                      A
 Frequencies --   1828.3186              3043.2233              3047.6502
 Red. masses --     12.3902                 1.0646                 1.0427
 Frc consts  --     24.4024                 5.8092                 5.7060
 IR Inten    --    179.3904                 1.6134                 5.7419

                     76                     77                     78
                      A                      A                      A
 Frequencies --   3048.8488              3051.1379              3054.5338
 Red. masses --      1.0426                 1.0582                 1.0568
 Frc consts  --      5.7103                 5.8042                 5.8094
 IR Inten    --     25.2084                32.3137                27.5306

                     79                     80                     81
                      A                      A                      A
 Frequencies --   3058.4901              3063.4467              3065.0669
 Red. masses --      1.0399                 1.0560                 1.0492
 Frc consts  --      5.7314                 5.8388                 5.8073
 IR Inten    --     25.2467                50.9103                 7.5210

                     82                     83                     84
                      A                      A                      A
 Frequencies --   3081.9455              3092.6518              3096.2884
 Red. masses --      1.0995                 1.0996                 1.0978
 Frc consts  --      6.1529                 6.1963                 6.2008
 IR Inten    --     15.2401                24.6404                 6.6860

                     85                     86                     87
                      A                      A                      A
 Frequencies --   3104.5483              3107.5843              3109.1348
 Red. masses --      1.1013                 1.0995                 1.1035
 Frc consts  --      6.2540                 6.2560                 6.2848
 IR Inten    --     38.2655                22.3657                55.9324

                     88                     89                     90
                      A                      A                      A
 Frequencies --   3124.6701              3126.7057              3129.7746
 Red. masses --      1.1008                 1.1023                 1.1001
 Frc consts  --      6.3326                 6.3494                 6.3491
 IR Inten    --      6.6779                41.6448                38.9680

                     91                     92                     93
                      A                      A                      A
 Frequencies --   3134.4995              3144.9369              3149.1810
 Red. masses --      1.0994                 1.1012                 1.0989
 Frc consts  --      6.3639                 6.4171                 6.4210
 IR Inten    --     19.3627                28.1126                18.9033

 - Thermochemistry -
 -------------------
 Temperature   298.150 Kelvin.  Pressure   1.00000 Atm.
 Atom     1 has atomic number  8 and mass  15.99491

 Molecular mass:   180.15142 amu.
 Principal axes and moments of inertia in atomic units:
                           1         2         3
     Eigenvalues --  1604.802152413.321002615.67295
           X            0.99842  -0.05269   0.01947
           Y            0.05092   0.99531   0.08222
           Z           -0.02371  -0.08110   0.99642
 This molecule is an asymmetric top.
 Rotational symmetry number  1.
 Warning -- assumption of classical behavior for rotation
           may cause significant error
 Rotational temperatures (Kelvin)      0.05397     0.03589     0.03311
 Rotational constants (GHZ):           1.12459     0.74782     0.68997
 Zero-point vibrational energy     785583.1 (Joules/Mol)
                                  187.75886 (Kcal/Mol)
 Warning -- explicit consideration of  22 degrees of freedom as
           vibrations may cause significant error
 Vibrational temperatures:     71.50   113.80   254.09   268.14   298.48
          (Kelvin)            331.50   350.50   380.55   393.82   425.24
                              436.10   463.88   482.04   503.49   527.20
                              530.36   628.30   709.06   738.91   766.93
                              859.93   889.19   922.10   951.38  1089.63
                             1140.43  1217.64  1249.23  1283.69  1291.61
                             1318.94  1367.56  1381.93  1388.88  1406.35
                             1461.37  1477.64  1501.27  1552.52  1571.01
                             1591.56  1630.50  1659.67  1691.20  1721.77
                             1737.24  1764.67  1784.52  1824.64  1845.20
                             1854.86  1871.81  1886.35  1947.03  1952.67
                             1972.14  2042.89  2066.29  2069.96  2088.71
                             2131.22  2172.28  2185.58  2187.77  2190.14
                             2195.70  2198.07  2211.11  2216.56  2222.61
                             2228.43  2232.17  2630.54  4378.52  4384.89
                             4386.61  4389.91  4394.79  4400.49  4407.62
                             4409.95  4434.23  4449.64  4454.87  4466.75
                             4471.12  4473.35  4495.70  4498.63  4503.05
                             4509.85  4524.86  4530.97

 Zero-point correction=                           0.299213 (Hartree/Particle)
 Thermal correction to Energy=                    0.312568
 Thermal correction to Enthalpy=                  0.313512
 Thermal correction to Gibbs Free Energy=         0.261107
 Sum of electronic and zero-point Energies=           -544.251142
 Sum of electronic and thermal Energies=              -544.237786
 Sum of electronic and thermal Enthalpies=            -544.236842
 Sum of electronic and thermal Free Energies=         -544.289248

                     E (Thermal)             CV                S
                      KCal/Mol        Cal/Mol-Kelvin    Cal/Mol-Kelvin
 Total                  196.140             54.074            110.297
 Electronic               0.000              0.000              0.000
 Translational            0.889              2.981             41.473
 Rotational               0.889              2.981             30.694
 Vibrational            194.362             48.112             38.131
 Vibration     1          0.595              1.978              4.830
 Vibration     2          0.600              1.963              3.913
 Vibration     3          0.628              1.871              2.364
 Vibration     4          0.632              1.859              2.264
 Vibration     5          0.641              1.829              2.066
 Vibration     6          0.652              1.795              1.876
 Vibration     7          0.659              1.773              1.776
 Vibration     8          0.671              1.738              1.632
 Vibration     9          0.676              1.722              1.573
 Vibration    10          0.690              1.682              1.442
 Vibration    11          0.695              1.668              1.400
 Vibration    12          0.707              1.631              1.298
 Vibration    13          0.716              1.606              1.236
 Vibration    14          0.727              1.575              1.166
 Vibration    15          0.739              1.541              1.095
 Vibration    16          0.741              1.537              1.086
 Vibration    17          0.797              1.390              0.837
 Vibration    18          0.849              1.266              0.676
 Vibration    19          0.869              1.220              0.625
 Vibration    20          0.888              1.177              0.580
 Vibration    21          0.956              1.037              0.454
 Vibration    22          0.978              0.994              0.420

 Normal termination of Gaussian 16 at Sat Feb 24 03:39:04 2024.
