 Gaussian 16, Revision A.03,
 Gaussian 16:  EM64M-G16RevA.03 25-Dec-2016

 ---------------------
 # freq b3lyp/6-31g(d)
 ---------------------

 ---------
 good luck
 ---------
 Symbolic Z-matrix:
 Charge =  0 Multiplicity = 1

                         Standard orientation:
 ---------------------------------------------------------------------
 Center     Atomic      Atomic             Coordinates (Angstroms)
 Number     Number       Type             X           Y           Z
 ---------------------------------------------------------------------
      1          8           0        2.165386    2.606579    0.344974
      2          6           0        1.202170    1.863217    0.307585
      3          6           0       -0.218938    2.383886    0.134339
      4          6           0       -0.949482    1.659195   -1.013799
      5          6           0       -0.868407    0.136657   -0.875724
      6          8           0       -1.577797   -0.284931    0.326245
      7          6           0       -2.913151   -0.498466    0.215322
      8          8           0       -3.539391   -0.351085   -0.810822
      9          6           0       -3.493083   -0.942326    1.538382
     10          6           0        0.579709   -0.353049   -0.749903
     11          6           0        0.693559   -1.883339   -0.636485
     12          6           0        2.156789   -2.340810   -0.544255
     13          6           0        2.889424   -1.649237    0.615023
     14          6           0        2.789846   -0.120941    0.512460
     15          6           0        1.330791    0.344290    0.420824
     16          1           0       -0.762848    2.204438    1.072184
     17          1           0       -0.178954    3.464115   -0.030631
     18          1           0       -1.998589    1.967729   -1.062084
     19          1           0       -0.494216    1.935220   -1.974075
     20          1           0       -1.358854   -0.339001   -1.729736
     21          1           0       -3.000426   -1.858975    1.878669
     22          1           0       -3.319935   -0.176513    2.301756
     23          1           0       -4.563586   -1.115934    1.425080
     24          1           0        1.075085   -0.048839   -1.686244
     25          1           0        0.147533   -2.214154    0.256853
     26          1           0        0.201174   -2.352374   -1.499128
     27          1           0        2.200173   -3.430983   -0.427992
     28          1           0        2.670599   -2.106850   -1.488336
     29          1           0        3.942910   -1.955134    0.633832
     30          1           0        2.451757   -1.981257    1.568315
     31          1           0        3.330301    0.229707   -0.377102
     32          1           0        3.275194    0.361135    1.367821
     33          1           0        0.801725    0.058693    1.345024
 ---------------------------------------------------------------------

 SCF Done:  E(RB3LYP) =  -693.825189368     A.U. after   14 cycles

 The electronic state is 1-A.
 Alpha  occ. eigenvalues --  -19.19455 -19.14094 -19.13627 -10.32300 -10.26968
 Alpha  occ. eigenvalues --  -10.25159 -10.20428 -10.20225 -10.19925 -10.19568
 Alpha  occ. eigenvalues --  -10.19351 -10.18704 -10.18419 -10.18195 -10.17927
 Alpha  occ. eigenvalues --   -1.10309  -1.03487  -1.01857  -0.85390  -0.80913
 Alpha  occ. eigenvalues --   -0.76832  -0.75001  -0.74766  -0.70836  -0.63800
 Alpha  occ. eigenvalues --   -0.62401  -0.60966  -0.56561  -0.55750  -0.51733
 Alpha  occ. eigenvalues --   -0.50339  -0.48901  -0.47962  -0.46990  -0.45796
 Alpha  occ. eigenvalues --   -0.45219  -0.44779  -0.43963  -0.42697  -0.41555
 Alpha  occ. eigenvalues --   -0.41308  -0.40245  -0.39877  -0.38736  -0.37468
 Alpha  occ. eigenvalues --   -0.36945  -0.36074  -0.35483  -0.34849  -0.34684
 Alpha  occ. eigenvalues --   -0.33275  -0.32326  -0.31739  -0.30212  -0.29621
 Alpha  occ. eigenvalues --   -0.27680  -0.23703
 Alpha virt. eigenvalues --   -0.01384   0.00603   0.07809   0.08735   0.09553
 Alpha virt. eigenvalues --    0.11443   0.11850   0.12096   0.13835   0.14275
 Alpha virt. eigenvalues --    0.15253   0.15455   0.16150   0.16615   0.16929

 Mulliken charges:
               1
     1  O   -0.451553
     2  C    0.444335
     3  C   -0.344498
     4  C   -0.298929
     5  C    0.112544
     6  O   -0.475142
     7  C    0.609191
     8  O   -0.465960
     9  C   -0.525993
    10  C   -0.114756
    11  C   -0.265967
    12  C   -0.261759
    13  C   -0.265840
    14  C   -0.254635
    15  C   -0.183085
    16  H    0.162419
    17  H    0.165208
    18  H    0.169399
    19  H    0.151891
    20  H    0.164026
    21  H    0.182492
    22  H    0.181103
    23  H    0.185425
    24  H    0.133529
    25  H    0.141295
    26  H    0.133441
    27  H    0.134302
    28  H    0.131105
    29  H    0.135812
    30  H    0.127824
    31  H    0.140641
    32  H    0.148757
    33  H    0.153379
 Sum of Mulliken charges =  -0.00000

 Dipole moment (field-independent basis, Debye):
    X=             -0.7737    Y=             -1.9619    Z=              1.0348  Tot=              2.3491
 Quadrupole moment (field-independent basis, Debye-Ang):
   XX=           -100.3679   YY=            -93.6992   ZZ=            -86.7729
   XY=             -7.7794   XZ=             -8.7387   YZ=             -2.3367

  Exact polarizability: 143.440   1.228 125.773   1.812  -1.422 109.044
 Approx polarizability: 191.973  11.533 169.919   5.954  -3.547 174.438

                      1                      2                      3
                      A                      A                      A
 Frequencies --     43.1068                49.5505                64.4983
 Red. masses --      2.7569                 2.3409                 3.1165
 Frc consts  --      0.0030                 0.0034                 0.0076
 IR Inten    --      3.5014                 0.5795                 1.9537

                      4                      5                      6
                      A                      A                      A
 Frequencies --     73.8555                91.9605               134.7892
 Red. masses --      2.5830                 2.6478                 2.9311
 Frc consts  --      0.0083                 0.0132                 0.0314
 IR Inten    --      0.1840                 2.1057                 0.2914

                      7                      8                      9
                      A                      A                      A
 Frequencies --    172.0681               208.2597               227.4775
 Red. masses --      2.9750                 7.1254                 3.0694
 Frc consts  --      0.0519                 0.1821                 0.0936
 IR Inten    --      1.4539                 5.7269                 0.6738

                     10                     11                     12
                      A                      A                      A
 Frequencies --    268.0966               300.8484               325.1521
 Red. masses --      4.0647                 2.2822                 2.3916
 Frc consts  --      0.1721                 0.1217                 0.1490
 IR Inten    --      6.4478                 1.8067                 2.0829

                     13                     14                     15
                      A                      A                      A
 Frequencies --    341.4348               380.2839               401.6200
 Red. masses --      2.3991                 4.0918                 2.8437
 Frc consts  --      0.1648                 0.3486                 0.2702
 IR Inten    --      2.6196                 0.3541                 1.2328

                     16                     17                     18
                      A                      A                      A
 Frequencies --    457.9049               465.9728               490.4247
 Red. masses --      2.8322                 2.8159                 2.1135
 Frc consts  --      0.3499                 0.3602                 0.2995
 IR Inten    --      2.7446                 4.2865                 0.4831

                     19                     20                     21
                      A                      A                      A
 Frequencies --    547.5985               575.2931               603.5861
 Red. masses --      2.9923                 3.2422                 3.2532
 Frc consts  --      0.5287                 0.6322                 0.6983
 IR Inten    --      2.8495                 8.4824                 6.3331

                     22                     23                     24
                      A                      A                      A
 Frequencies --    623.8872               653.3148               708.5091
 Red. masses --      4.5811                 3.6130                 2.9979
 Frc consts  --      1.0506                 0.9086                 0.8867
 IR Inten    --      6.1878                 1.1402                 2.7977

                     25                     26                     27
                      A                      A                      A
 Frequencies --    788.9804               823.1528               843.4123
 Red. masses --      1.9827                 2.0296                 2.9860
 Frc consts  --      0.7272                 0.8103                 1.2515
 IR Inten    --      0.0844                 3.9355                 7.8692

                     28                     29                     30
                      A                      A                      A
 Frequencies --    860.3407               868.2321               886.8981
 Red. masses --      1.7260                 2.9825                 2.0258
 Frc consts  --      0.7527                 1.3247                 0.9389
 IR Inten    --      2.4621                 3.8438                 2.9370

                     31                     32                     33
                      A                      A                      A
 Frequencies --    907.7050               931.8192               961.1942
 Red. masses --      2.1159                 2.0945                 3.8466
 Frc consts  --      1.0272                 1.0715                 2.0939
 IR Inten    --      6.4930                 6.0410                22.4756

                     34                     35                     36
                      A                      A                      A
 Frequencies --    973.7852               998.8935              1027.8225
 Red. masses --      2.3065                 1.8043                 2.2018
 Frc consts  --      1.2886                 1.0607                 1.3705
 IR Inten    --      0.9152                 3.1948                 0.2702

                     37                     38                     39
                      A                      A                      A
 Frequencies --   1036.3245              1059.3263              1060.2358
 Red. masses --      1.8174                 1.7950                 2.0248
 Frc consts  --      1.1500                 1.1868                 1.3410
 IR Inten    --     32.3698                46.7038                43.1351

                     40                     41                     42
                      A                      A                      A
 Frequencies --   1072.1910              1075.7082              1089.6311
 Red. masses --      1.3438                 1.7519                 1.4965
 Frc consts  --      0.9102                 1.1944                 1.0468
 IR Inten    --      1.0282                 5.3921                 7.4974

                     43                     44                     45
                      A                      A                      A
 Frequencies --   1106.1914              1147.5284              1155.0756
 Red. masses --      2.7138                 2.3426                 2.0925
 Frc consts  --      1.9565                 1.8175                 1.6449
 IR Inten    --      0.7007                39.4668                 4.1826

                     46                     47                     48
                      A                      A                      A
 Frequencies --   1174.6267              1202.5454              1243.8875
 Red. masses --      2.4626                 1.2538                 1.4785
 Frc consts  --      2.0019                 1.0683                 1.3478
 IR Inten    --     33.9800                10.7311                22.8004

                     49                     50                     51
                      A                      A                      A
 Frequencies --   1257.3934              1271.4523              1276.2210
 Red. masses --      1.3658                 1.8821                 2.2120
 Frc consts  --      1.2722                 1.7926                 2.1227
 IR Inten    --     14.7294               213.7130               231.8588

                     52                     53                     54
                      A                      A                      A
 Frequencies --   1282.7062              1322.1002              1337.9866
 Red. masses --      1.4317                 1.2617                 1.2937
 Frc consts  --      1.3879                 1.2994                 1.3645
 IR Inten    --     15.7115                 1.2475                 6.1656

                     55                     56                     57
                      A                      A                      A
 Frequencies --   1346.3176              1347.7994              1361.2124
 Red. masses --      1.2746                 1.3707                 1.6058
 Frc consts  --      1.3612                 1.4671                 1.7530
 IR Inten    --      2.4344                11.4221                 3.9429

                     58                     59                     60
                      A                      A                      A
 Frequencies --   1382.4665              1390.7549              1392.7518
 Red. masses --      1.4501                 1.4621                 1.3993
 Frc consts  --      1.6328                 1.6662                 1.5992
 IR Inten    --      0.2211                 3.6268                 0.2871

                     61                     62                     63
                      A                      A                      A
 Frequencies --   1395.5306              1402.2653              1407.7439
 Red. masses --      1.4833                 1.4195                 1.4300
 Frc consts  --      1.7020                 1.6446                 1.6697
 IR Inten    --      7.3762                 2.8548                13.3107

                     64                     65                     66
                      A                      A                      A
 Frequencies --   1418.0129              1427.3007              1497.5760
 Red. masses --      1.6148                 1.4073                 1.0884
 Frc consts  --      1.9131                 1.6892                 1.4382
 IR Inten    --     13.1404                41.6614                 9.2421

                     67                     68                     69
                      A                      A                      A
 Frequencies --   1500.0835              1505.6994              1512.9253
 Red. masses --      1.0520                 1.0468                 1.0901
 Frc consts  --      1.3948                 1.3982                 1.4702
 IR Inten    --      9.0096                 9.6586                 3.1917

                     70                     71                     72
                      A                      A                      A
 Frequencies --   1516.9107              1520.0845              1522.4670
 Red. masses --      1.0924                 1.0825                 1.0897
 Frc consts  --      1.4810                 1.4738                 1.4882
 IR Inten    --      1.9992                 7.1789                 8.6522

                     73                     74                     75
                      A                      A                      A
 Frequencies --   1532.6964              1808.9765              1828.1670
 Red. masses --      1.0987                11.5312                10.9843
 Frc consts  --      1.5206                22.2326                21.6299
 IR Inten    --      0.1313               183.2205               217.0324

                     76                     77                     78
                      A                      A                      A
 Frequencies --   2995.9054              3008.0728              3020.7206
 Red. masses --      1.0801                 1.0826                 1.0701
 Frc consts  --      5.7115                 5.7716                 5.7532
 IR Inten    --      2.6950                14.2136                17.7964

                     79                     80                     81
                      A                      A                      A
 Frequencies --   3026.2446              3035.8530              3044.5752
 Red. masses --      1.0635                 1.0611                 1.0681
 Frc consts  --      5.7385                 5.7621                 5.8333
 IR Inten    --     31.1909                28.9386                 4.9047

                     82                     83                     84
                      A                      A                      A
 Frequencies --   3047.7465              3055.3400              3070.9883
 Red. masses --      1.0668                 1.0648                 1.0980
 Frc consts  --      5.8381                 5.8565                 6.1012
 IR Inten    --     14.4965                24.7052                41.0085

                     85                     86                     87
                      A                      A                      A
 Frequencies --   3071.1235              3075.0368              3081.7400
 Red. masses --      1.0372                 1.0946                 1.1025
 Frc consts  --      5.7639                 6.0985                 6.1693
 IR Inten    --      2.0282                55.8116                61.1069

                     88                     89                     90
                      A                      A                      A
 Frequencies --   3099.1502              3102.8807              3110.1378
 Red. masses --      1.0988                 1.0862                 1.0978
 Frc consts  --      6.2183                 6.1618                 6.2568
 IR Inten    --     30.3470                21.4038                18.8406

                     91                     92                     93
                      A                      A                      A
 Frequencies --   3124.5866              3133.0815              3183.3312
 Red. masses --      1.0975                 1.1006                 1.1032
 Frc consts  --      6.3128                 6.3653                 6.5865
 IR Inten    --     18.5484                 5.7840                 8.1772

 - Thermochemistry -
 -------------------
 Temperature   298.150 Kelvin.  Pressure   1.00000 Atm.
 Atom     1 has atomic number  8 and mass  15.99491

 Molecular mass:   210.12559 amu.
 Principal axes and moments of inertia in atomic units:
                           1         2         3
     Eigenvalues --  2147.728063975.951605229.06802
           X            0.99914  -0.03944  -0.01287
           Y            0.03927   0.99915  -0.01287
           Z            0.01337   0.01235   0.99983
 This molecule is an asymmetric top.
 Rotational symmetry number  1.
 Warning -- assumption of classical behavior for rotation
           may cause significant error
 Rotational temperatures (Kelvin)      0.04033     0.02178     0.01656
 Rotational constants (GHZ):           0.84030     0.45391     0.34514
 Zero-point vibrational energy     756979.7 (Joules/Mol)
                                  180.92248 (Kcal/Mol)
 Warning -- explicit consideration of  21 degrees of freedom as
           vibrations may cause significant error
 Vibrational temperatures:     62.02    71.29    92.80   106.26   132.31
          (Kelvin)            193.93   247.57   299.64   327.29   385.73
                              432.85   467.82   491.25   547.14   577.84
                              658.82   670.43   705.61   787.87   827.72
                              868.43   897.63   939.97  1019.39  1135.17
                             1184.33  1213.48  1237.84  1249.19  1276.05
                             1305.99  1340.68  1382.94  1401.06  1437.19
                             1478.81  1491.04  1524.13  1525.44  1542.64
                             1547.70  1567.74  1591.56  1651.04  1661.90
                             1690.03  1730.19  1789.68  1809.11  1829.34
                             1836.20  1845.53  1902.21  1925.06  1937.05
                             1939.18  1958.48  1989.06  2000.99  2003.86
                             2007.86  2017.55  2025.43  2040.20  2053.57
                             2154.68  2158.29  2166.37  2176.76  2182.50
                             2187.06  2190.49  2205.21  2602.71  2630.32
                             4310.44  4327.95  4346.14  4354.09  4367.92
                             4380.46  4385.03  4395.95  4418.47  4418.66
                             4424.29  4433.94  4458.99  4464.35  4474.79
                             4495.58  4507.81  4580.10

 Zero-point correction=                           0.288318 (Hartree/Particle)
 Thermal correction to Energy=                    0.302586
 Thermal correction to Enthalpy=                  0.303530
 Thermal correction to Gibbs Free Energy=         0.246310
 Sum of electronic and zero-point Energies=           -693.536871
 Sum of electronic and thermal Energies=              -693.522603
 Sum of electronic and thermal Enthalpies=            -693.521659
 Sum of electronic and thermal Free Energies=         -693.578879

                     E (Thermal)             CV                S
                      KCal/Mol        Cal/Mol-Kelvin    Cal/Mol-Kelvin
 Total                  189.876             54.708            120.430
 Electronic               0.000              0.000              0.000
 Translational            0.889              2.981             41.931
 Rotational               0.889              2.981             32.168
 Vibrational            188.098             48.746             46.330
 Vibration     1          0.595              1.980              5.111
 Vibration     2          0.595              1.978              4.835
 Vibration     3          0.597              1.971              4.315
 Vibration     4          0.599              1.966              4.048
 Vibration     5          0.602              1.955              3.618
 Vibration     6          0.613              1.919              2.877
 Vibration     7          0.626              1.877              2.413
 Vibration     8          0.642              1.828              2.059
 Vibration     9          0.651              1.799              1.899
 Vibration    10          0.673              1.732              1.608
 Vibration    11          0.693              1.672              1.412
 Vibration    12          0.709              1.625              1.284
 Vibration    13          0.721              1.593              1.205
 Vibration    14          0.750              1.512              1.038
 Vibration    15          0.767              1.467              0.957
 Vibration    16          0.816              1.343              0.772
 Vibration    17          0.823              1.326              0.749
 Vibration    18          0.846              1.271              0.683
 Vibration    19          0.903              1.145              0.549
 Vibration    20          0.932              1.085              0.494
 Vibration    21          0.962              1.024              0.444

 Normal termination of Gaussian 16 at Sat Feb 24 00:46:16 2024.
