 Gaussian 16, Revision A.03,
 Gaussian 16:  EM64M-G16RevA.03 25-Dec-2016

 ---------------------
 # freq b3lyp/6-31g(d)
 ---------------------

 ---------
 good luck
 ---------
 Symbolic Z-matrix:
 Charge =  0 Multiplicity = 1

                         Standard orientation:
 ---------------------------------------------------------------------
 Center     Atomic      Atomic             Coordinates (Angstroms)
 Number     Number       Type             X           Y           Z
 ---------------------------------------------------------------------
      1          8           0       -1.581448    2.155983   -0.000000
      2          6           0       -0.738242    1.278958   -0.000000
      3          6           0       -0.171030    0.689569    1.285583
      4          6           0       -0.171030   -0.854742    1.261099
      5          6           0        0.499906   -1.439172    0.000000
      6          6           0        2.026376   -1.255354    0.000000
      7          6           0       -0.171030   -0.854742   -1.261099
      8          6           0       -0.171030    0.689569   -1.285583
      9          1           0        0.860315    1.056811    1.393954
     10          1           0       -0.746175    1.080403    2.130124
     11          1           0       -1.211574   -1.204508    1.302296
     12          1           0        0.320581   -1.235974    2.165070
     13          1           0        0.307514   -2.521309    0.000000
     14          1           0        2.474424   -1.721836    0.885305
     15          1           0        2.325395   -0.200860    0.000000
     16          1           0        2.474424   -1.721836   -0.885305
     17          1           0       -1.211574   -1.204508   -1.302296
     18          1           0        0.320581   -1.235974   -2.165070
     19          1           0        0.860315    1.056811   -1.393954
     20          1           0       -0.746175    1.080403   -2.130124
 ---------------------------------------------------------------------

 SCF Done:  E(RB3LYP) =  -349.203247332     A.U. after   13 cycles

 The electronic state is 1-A'.
 Alpha  occ. eigenvalues --  -19.13112 -10.26743 -10.19754 -10.19254 -10.19252
 Alpha  occ. eigenvalues --  -10.18962 -10.18961 -10.18218  -1.02988  -0.83661
 Alpha  occ. eigenvalues --   -0.75372  -0.74888  -0.67665  -0.62757  -0.57135
 Alpha  occ. eigenvalues --   -0.51693  -0.48499  -0.46222  -0.44668  -0.43365
 Alpha  occ. eigenvalues --   -0.42889  -0.41449  -0.38906  -0.38187  -0.37523
 Alpha  occ. eigenvalues --   -0.35554  -0.35435  -0.32602  -0.31912  -0.31545
 Alpha  occ. eigenvalues --   -0.23364
 Alpha virt. eigenvalues --   -0.01116   0.07534   0.09431   0.13127   0.13802
 Alpha virt. eigenvalues --    0.13954   0.14536   0.15784   0.16562   0.17384
 Alpha virt. eigenvalues --    0.17528   0.19567   0.21581   0.21630   0.21687

 Mulliken charges:
               1
     1  O   -0.446994
     2  C    0.452330
     3  C   -0.348198
     4  C   -0.273749
     5  C   -0.077253
     6  C   -0.453183
     7  C   -0.273749
     8  C   -0.348198
     9  H    0.156649
    10  H    0.163276
    11  H    0.142933
    12  H    0.139289
    13  H    0.129118
    14  H    0.146139
    15  H    0.143308
    16  H    0.146139
    17  H    0.142933
    18  H    0.139289
    19  H    0.156649
    20  H    0.163276
 Sum of Mulliken charges =  -0.00000

 Dipole moment (field-independent basis, Debye):
    X=              2.0402    Y=             -2.3925    Z=             -0.0000  Tot=              3.1442
 Quadrupole moment (field-independent basis, Debye-Ang):
   XX=            -52.9397   YY=            -55.3766   ZZ=            -47.8850
   XY=              5.6849   XZ=              0.0000   YZ=              0.0000

  Exact polarizability:  70.390 -10.014  73.365  -0.000  -0.000  71.886
 Approx polarizability: 103.763 -12.271 104.043   0.000  -0.000  96.784

                      1                      2                      3
                     A'                     A"                     A'
 Frequencies --     79.9630               170.5679               204.6278
 Red. masses --      4.3931                 1.9124                 3.1505
 Frc consts  --      0.0166                 0.0328                 0.0777
 IR Inten    --      2.9163                 1.3546                 0.4522

                      4                      5                      6
                     A"                     A"                     A'
 Frequencies --    227.8087               352.1578               376.1446
 Red. masses --      1.1327                 2.0221                 1.9964
 Frc consts  --      0.0346                 0.1477                 0.1664
 IR Inten    --      0.0759                 0.5489                 0.6371

                      7                      8                      9
                     A'                     A"                     A"
 Frequencies --    417.6486               443.0437               492.1859
 Red. masses --      2.0151                 3.1997                 3.5484
 Frc consts  --      0.2071                 0.3700                 0.5065
 IR Inten    --      1.7358                 3.3012                 7.8224

                     10                     11                     12
                     A'                     A'                     A'
 Frequencies --    568.1070               691.3967               762.0282
 Red. masses --      2.8754                 3.0730                 2.4585
 Frc consts  --      0.5468                 0.8655                 0.8411
 IR Inten    --      0.9749                 1.7313                 7.8837

                     13                     14                     15
                     A"                     A'                     A"
 Frequencies --    765.3181               771.9537               886.3580
 Red. masses --      1.5424                 2.7031                 2.3615
 Frc consts  --      0.5323                 0.9490                 1.0931
 IR Inten    --      2.4418                 0.4445                 3.9118

                     16                     17                     18
                     A"                     A'                     A'
 Frequencies --    941.3259               959.6000               971.9378
 Red. masses --      1.3735                 2.1207                 1.6083
 Frc consts  --      0.7171                 1.1505                 0.8951
 IR Inten    --      0.0083                 1.9102                 0.8587

                     19                     20                     21
                     A"                     A'                     A'
 Frequencies --   1011.3124              1017.2939              1071.0321
 Red. masses --      1.7113                 2.4723                 1.5929
 Frc consts  --      1.0312                 1.5075                 1.0766
 IR Inten    --      1.0916                 0.6849                 0.2850

                     22                     23                     24
                     A"                     A"                     A'
 Frequencies --   1090.9099              1147.1946              1154.0511
 Red. masses --      1.2378                 1.5810                 2.1538
 Frc consts  --      0.8679                 1.2259                 1.6900
 IR Inten    --      9.1556                24.2112                 0.0673

                     25                     26                     27
                     A"                     A'                     A"
 Frequencies --   1192.4189              1246.8226              1258.5607
 Red. masses --      1.4979                 1.3134                 1.7896
 Frc consts  --      1.2549                 1.2030                 1.6702
 IR Inten    --     12.5514                 1.4775                18.6226

                     28                     29                     30
                     A'                     A'                     A"
 Frequencies --   1290.2010              1348.5469              1349.6785
 Red. masses --      1.3324                 1.3596                 1.3860
 Frc consts  --      1.3068                 1.4568                 1.4876
 IR Inten    --      0.6323                 0.3337                 6.4206

                     31                     32                     33
                     A"                     A"                     A'
 Frequencies --   1362.4978              1391.4909              1395.2291
 Red. masses --      1.7872                 1.4132                 1.5078
 Frc consts  --      1.9547                 1.6122                 1.7294
 IR Inten    --      2.8109                 6.3489                 4.3950

                     34                     35                     36
                     A'                     A'                     A"
 Frequencies --   1403.9952              1444.1725              1492.6896
 Red. masses --      1.3507                 1.2645                 1.0893
 Frc consts  --      1.5687                 1.5538                 1.4300
 IR Inten    --      7.9168                 8.9332                 7.4567

                     37                     38                     39
                     A'                     A"                     A'
 Frequencies --   1502.5637              1517.9773              1525.9124
 Red. masses --      1.0791                 1.0897                 1.0711
 Frc consts  --      1.4354                 1.4794                 1.4694
 IR Inten    --      7.9735                 6.8710                 4.0378

                     40                     41                     42
                     A"                     A'                     A'
 Frequencies --   1535.7673              1537.2886              1817.6572
 Red. masses --      1.0535                 1.0682                10.9848
 Frc consts  --      1.4640                 1.4874                21.3829
 IR Inten    --      1.1260                 6.4009               193.3500

                     43                     44                     45
                     A'                     A"                     A'
 Frequencies --   3022.5737              3029.0008              3034.1694
 Red. masses --      1.0781                 1.0690                 1.0680
 Frc consts  --      5.8029                 5.7786                 5.7929
 IR Inten    --      8.5887                 6.1098                 2.9555

                     46                     47                     48
                     A"                     A'                     A'
 Frequencies --   3036.0075              3043.8891              3048.5059
 Red. masses --      1.0607                 1.0556                 1.0491
 Frc consts  --      5.7603                 5.7623                 5.7445
 IR Inten    --     22.9919                78.1926                17.4938

                     49                     50                     51
                     A"                     A'                     A"
 Frequencies --   3074.9279              3078.1095              3109.8614
 Red. masses --      1.1026                 1.1020                 1.1024
 Frc consts  --      6.1424                 6.1520                 6.2815
 IR Inten    --     27.8200                47.3332                33.8357

                     52                     53                     54
                     A'                     A"                     A'
 Frequencies --   3111.3868              3116.2985              3118.0621
 Red. masses --      1.1000                 1.0947                 1.0963
 Frc consts  --      6.2742                 6.2636                 6.2800
 IR Inten    --     53.5573                20.0832                13.4646

 - Thermochemistry -
 -------------------
 Temperature   298.150 Kelvin.  Pressure   1.00000 Atm.
 Atom     1 has atomic number  8 and mass  15.99491

 Molecular mass:   112.08882 amu.
 Principal axes and moments of inertia in atomic units:
                           1         2         3
     Eigenvalues --   519.809161117.339561349.90706
           X           -0.59881   0.00000   0.80089
           Y            0.80089   0.00000   0.59881
           Z           -0.00000   1.00000  -0.00000
 This molecule is an asymmetric top.
 Rotational symmetry number  1.
 Warning -- assumption of classical behavior for rotation
           may cause significant error
 Rotational temperatures (Kelvin)      0.16663     0.07752     0.06416
 Rotational constants (GHZ):           3.47193     1.61521     1.33694
 Zero-point vibrational energy     472586.1 (Joules/Mol)
                                  112.95080 (Kcal/Mol)
 Warning -- explicit consideration of  10 degrees of freedom as
           vibrations may cause significant error
 Vibrational temperatures:    115.05   245.41   294.41   327.77   506.68
          (Kelvin)            541.19   600.90   637.44   708.15   817.38
                              994.77  1096.39  1101.12  1110.67  1275.27
                             1354.36  1380.65  1398.40  1455.05  1463.66
                             1540.98  1569.58  1650.56  1660.42  1715.62
                             1793.90  1810.79  1856.31  1940.26  1941.89
                             1960.33  2002.05  2007.42  2020.04  2077.84
                             2147.65  2161.85  2184.03  2195.45  2209.63
                             2211.82  2615.20  4348.81  4358.06  4365.49
                             4368.14  4379.48  4386.12  4424.14  4428.71
                             4474.40  4476.59  4483.66  4486.20

 Zero-point correction=                           0.179999 (Hartree/Particle)
 Thermal correction to Energy=                    0.187822
 Thermal correction to Enthalpy=                  0.188766
 Thermal correction to Gibbs Free Energy=         0.147956
 Sum of electronic and zero-point Energies=           -349.023249
 Sum of electronic and thermal Energies=              -349.015425
 Sum of electronic and thermal Enthalpies=            -349.014481
 Sum of electronic and thermal Free Energies=         -349.055291

                     E (Thermal)             CV                S
                      KCal/Mol        Cal/Mol-Kelvin    Cal/Mol-Kelvin
 Total                  117.860             30.204             85.893
 Electronic               0.000              0.000              0.000
 Translational            0.889              2.981             40.058
 Rotational               0.889              2.981             28.152
 Vibrational            116.083             24.242             17.683
 Vibration     1          0.600              1.963              3.892
 Vibration     2          0.626              1.879              2.429
 Vibration     3          0.640              1.833              2.091
 Vibration     4          0.651              1.799              1.896
 Vibration     5          0.729              1.571              1.157
 Vibration     6          0.747              1.521              1.055
 Vibration     7          0.781              1.432              0.900
 Vibration     8          0.803              1.376              0.817
 Vibration     9          0.848              1.267              0.678
 Vibration    10          0.924              1.100              0.508

 Normal termination of Gaussian 16 at Wed Feb 21 18:17:49 2024.
