 Gaussian 16, Revision A.03,
 Gaussian 16:  EM64M-G16RevA.03 25-Dec-2016

 ---------------------
 # freq b3lyp/6-31g(d)
 ---------------------

 ---------
 good luck
 ---------
 Symbolic Z-matrix:
 Charge =  0 Multiplicity = 1

                         Standard orientation:
 ---------------------------------------------------------------------
 Center     Atomic      Atomic             Coordinates (Angstroms)
 Number     Number       Type             X           Y           Z
 ---------------------------------------------------------------------
      1          8           0        1.359369   -2.402559   -0.000000
      2          6           0        0.519933   -1.522134   -0.000000
      3          6           0       -0.047442   -0.931088   -1.284671
      4          6           0       -0.047442    0.611035   -1.260212
      5          6           0       -0.725493    1.178026    0.000000
      6          6           0       -0.722419    2.711221    0.000000
      7          6           0       -0.047442    0.611035    1.260212
      8          6           0       -0.047442   -0.931088    1.284671
      9          1           0        0.519120   -1.328986   -2.131662
     10          1           0       -1.084926   -1.287079   -1.382654
     11          1           0        0.990313    0.973331   -1.299737
     12          1           0       -0.543097    0.992039   -2.162004
     13          1           0       -1.774021    0.837829    0.000000
     14          1           0       -1.230286    3.110121    0.885925
     15          1           0        0.303300    3.101739    0.000000
     16          1           0       -1.230286    3.110121   -0.885925
     17          1           0        0.990313    0.973331    1.299737
     18          1           0       -0.543097    0.992039    2.162004
     19          1           0        0.519120   -1.328986    2.131662
     20          1           0       -1.084926   -1.287079    1.382654
 ---------------------------------------------------------------------

 SCF Done:  E(RB3LYP) =  -349.206235340     A.U. after   13 cycles

 The electronic state is 1-A'.
 Alpha  occ. eigenvalues --  -19.13186 -10.26796 -10.19726 -10.19246 -10.19245
 Alpha  occ. eigenvalues --  -10.19021 -10.19020 -10.18074  -1.03056  -0.83736
 Alpha  occ. eigenvalues --   -0.75439  -0.75419  -0.66515  -0.62865  -0.57685
 Alpha  occ. eigenvalues --   -0.53174  -0.46032  -0.45808  -0.45020  -0.44305
 Alpha  occ. eigenvalues --   -0.43683  -0.40225  -0.39302  -0.38022  -0.37893
 Alpha  occ. eigenvalues --   -0.35730  -0.34900  -0.32692  -0.32121  -0.31845
 Alpha  occ. eigenvalues --   -0.23415
 Alpha virt. eigenvalues --   -0.01234   0.08874   0.09981   0.11732   0.12216
 Alpha virt. eigenvalues --    0.14894   0.15509   0.15756   0.16604   0.17450
 Alpha virt. eigenvalues --    0.18214   0.18330   0.18932   0.19293   0.23535

 Mulliken charges:
               1
     1  O   -0.446228
     2  C    0.452703
     3  C   -0.346805
     4  C   -0.267711
     5  C   -0.076225
     6  C   -0.446417
     7  C   -0.267711
     8  C   -0.346805
     9  H    0.162874
    10  H    0.153009
    11  H    0.140734
    12  H    0.139792
    13  H    0.120585
    14  H    0.144143
    15  H    0.143508
    16  H    0.144143
    17  H    0.140734
    18  H    0.139792
    19  H    0.162874
    20  H    0.153009
 Sum of Mulliken charges =  -0.00000

 Dipole moment (field-independent basis, Debye):
    X=             -2.0449    Y=              2.3420    Z=              0.0000  Tot=              3.1091
 Quadrupole moment (field-independent basis, Debye-Ang):
   XX=            -51.7720   YY=            -56.9952   ZZ=            -47.8866
   XY=              5.6632   XZ=              0.0000   YZ=             -0.0000

  Exact polarizability:  65.785  -8.953  79.767  -0.000  -0.000  72.120
 Approx polarizability: 104.434 -11.463 103.828   0.000  -0.000  96.776

                      1                      2                      3
                     A'                     A"                     A'
 Frequencies --     76.5903               178.5145               206.0209
 Red. masses --      4.7442                 1.9093                 2.4713
 Frc consts  --      0.0164                 0.0358                 0.0618
 IR Inten    --      3.1647                 1.0140                 0.2084

                      4                      5                      6
                     A"                     A"                     A'
 Frequencies --    235.5007               300.2033               373.7715
 Red. masses --      1.0703                 2.2911                 3.0523
 Frc consts  --      0.0350                 0.1217                 0.2512
 IR Inten    --      0.0005                 0.1145                 1.6184

                      7                      8                      9
                     A'                     A"                     A'
 Frequencies --    423.2553               427.2764               489.2933
 Red. masses --      1.8115                 3.7114                 2.2235
 Frc consts  --      0.1912                 0.3992                 0.3136
 IR Inten    --      0.0081                 4.1772                 0.7835

                     10                     11                     12
                     A"                     A'                     A'
 Frequencies --    503.7666               687.4431               749.6097
 Red. masses --      3.2400                 3.3695                 3.2825
 Frc consts  --      0.4845                 0.9382                 1.0867
 IR Inten    --      7.5554                 0.7562                 2.9140

                     13                     14                     15
                     A"                     A'                     A"
 Frequencies --    768.9222               812.5517               905.4357
 Red. masses --      1.5617                 2.0185                 1.9844
 Frc consts  --      0.5440                 0.7852                 0.9585
 IR Inten    --      3.3430                 2.0947                 2.6348

                     16                     17                     18
                     A"                     A'                     A'
 Frequencies --    926.8759               962.4255               976.3690
 Red. masses --      1.3707                 2.0822                 1.3641
 Frc consts  --      0.6938                 1.1363                 0.7662
 IR Inten    --      1.8505                 0.2775                 3.9205

                     19                     20                     21
                     A"                     A'                     A"
 Frequencies --   1019.9711              1021.8748              1084.3592
 Red. masses --      1.6443                 2.2252                 1.2062
 Frc consts  --      1.0079                 1.3690                 0.8357
 IR Inten    --      7.0838                 0.9825                 4.3151

                     22                     23                     24
                     A'                     A"                     A'
 Frequencies --   1104.0928              1148.8124              1156.2984
 Red. masses --      2.6447                 1.7561                 2.0383
 Frc consts  --      1.8995                 1.3655                 1.6056
 IR Inten    --      0.1232                21.8584                 0.3048

                     25                     26                     27
                     A"                     A'                     A"
 Frequencies --   1207.2737              1255.0831              1280.7662
 Red. masses --      2.2306                 1.3161                 1.4862
 Frc consts  --      1.9155                 1.2215                 1.4364
 IR Inten    --     24.2270                 0.7093                 9.0367

                     28                     29                     30
                     A'                     A"                     A'
 Frequencies --   1287.7154              1333.4536              1346.9910
 Red. masses --      1.3852                 1.3792                 1.2588
 Frc consts  --      1.3533                 1.4449                 1.3457
 IR Inten    --      0.2254                 0.5051                 7.1125

                     31                     32                     33
                     A'                     A"                     A"
 Frequencies --   1365.1998              1368.7984              1398.5322
 Red. masses --      1.3632                 1.5419                 1.4702
 Frc consts  --      1.4969                 1.7022                 1.6942
 IR Inten    --      0.2181                16.1575                 0.0004

                     34                     35                     36
                     A'                     A'                     A"
 Frequencies --   1416.2103              1441.1078              1491.0991
 Red. masses --      1.5904                 1.2335                 1.0929
 Frc consts  --      1.8793                 1.5093                 1.4317
 IR Inten    --      1.3129                 2.8786                 6.3951

                     37                     38                     39
                     A'                     A"                     A'
 Frequencies --   1501.0371              1515.9870              1527.5445
 Red. masses --      1.0856                 1.0890                 1.0537
 Frc consts  --      1.4411                 1.4746                 1.4487
 IR Inten    --      9.5703                 1.4979                 3.7446

                     40                     41                     42
                     A"                     A'                     A'
 Frequencies --   1530.8327              1532.5147              1818.7342
 Red. masses --      1.0569                 1.0805                11.0042
 Frc consts  --      1.4593                 1.4952                21.4460
 IR Inten    --      3.4801                 6.0807               190.8420

                     43                     44                     45
                     A'                     A"                     A'
 Frequencies --   2994.0492              3016.0544              3022.4876
 Red. masses --      1.0821                 1.0699                 1.0704
 Frc consts  --      5.7151                 5.7340                 5.7613
 IR Inten    --     12.9251                 3.8490                 6.6362

                     46                     47                     48
                     A"                     A'                     A'
 Frequencies --   3026.9405              3032.4598              3041.3654
 Red. masses --      1.0624                 1.0582                 1.0399
 Frc consts  --      5.7353                 5.7335                 5.6672
 IR Inten    --     15.5122                39.7928                59.2284

                     49                     50                     51
                     A"                     A'                     A'
 Frequencies --   3072.4671              3076.0588              3104.9206
 Red. masses --      1.1004                 1.1009                 1.1014
 Frc consts  --      6.1201                 6.1375                 6.2562
 IR Inten    --     34.8486                32.7473                46.5706

                     52                     53                     54
                     A"                     A"                     A'
 Frequencies --   3111.0980              3116.5629              3117.8515
 Red. masses --      1.1025                 1.0937                 1.0944
 Frc consts  --      6.2874                 6.2587                 6.2681
 IR Inten    --     34.4922                22.1329                18.5748

 - Thermochemistry -
 -------------------
 Temperature   298.150 Kelvin.  Pressure   1.00000 Atm.
 Atom     1 has atomic number  8 and mass  15.99491

 Molecular mass:   112.08882 amu.
 Principal axes and moments of inertia in atomic units:
                           1         2         3
     Eigenvalues --   447.426861256.665051560.20133
           X           -0.34454   0.00000   0.93877
           Y            0.93877   0.00000   0.34454
           Z           -0.00000   1.00000  -0.00000
 This molecule is an asymmetric top.
 Rotational symmetry number  1.
 Warning -- assumption of classical behavior for rotation
           may cause significant error
 Rotational temperatures (Kelvin)      0.19358     0.06892     0.05551
 Rotational constants (GHZ):           4.03360     1.43614     1.15674
 Zero-point vibrational energy     471869.6 (Joules/Mol)
                                  112.77953 (Kcal/Mol)
 Warning -- explicit consideration of  10 degrees of freedom as
           vibrations may cause significant error
 Vibrational temperatures:    110.20   256.84   296.42   338.83   431.93
          (Kelvin)            537.77   608.97   614.76   703.98   724.81
                              989.08  1078.52  1106.31  1169.08  1302.72
                             1333.57  1384.72  1404.78  1467.51  1470.25
                             1560.15  1588.54  1652.88  1663.66  1737.00
                             1805.78  1842.74  1852.74  1918.54  1938.02
                             1964.22  1969.40  2012.18  2037.61  2073.43
                             2145.36  2159.66  2181.17  2197.80  2202.53
                             2204.95  2616.75  4307.77  4339.43  4348.69
                             4355.09  4363.03  4375.85  4420.59  4425.76
                             4467.29  4476.18  4484.04  4485.89

 Zero-point correction=                           0.179726 (Hartree/Particle)
 Thermal correction to Energy=                    0.187631
 Thermal correction to Enthalpy=                  0.188575
 Thermal correction to Gibbs Free Energy=         0.147553
 Sum of electronic and zero-point Energies=           -349.026510
 Sum of electronic and thermal Energies=              -349.018605
 Sum of electronic and thermal Enthalpies=            -349.017660
 Sum of electronic and thermal Free Energies=         -349.058682

                     E (Thermal)             CV                S
                      KCal/Mol        Cal/Mol-Kelvin    Cal/Mol-Kelvin
 Total                  117.740             30.348             86.337
 Electronic               0.000              0.000              0.000
 Translational            0.889              2.981             40.058
 Rotational               0.889              2.981             28.263
 Vibrational            115.963             24.386             18.016
 Vibration     1          0.599              1.965              3.976
 Vibration     2          0.629              1.869              2.344
 Vibration     3          0.641              1.831              2.079
 Vibration     4          0.655              1.786              1.837
 Vibration     5          0.693              1.673              1.416
 Vibration     6          0.745              1.526              1.064
 Vibration     7          0.785              1.420              0.881
 Vibration     8          0.789              1.411              0.868
 Vibration     9          0.845              1.274              0.685
 Vibration    10          0.859              1.242              0.649

 Normal termination of Gaussian 16 at Wed Feb 21 18:18:35 2024.
