 Gaussian 16, Revision A.03,
 Gaussian 16:  EM64M-G16RevA.03 25-Dec-2016

 ---------------------
 # freq b3lyp/6-31g(d)
 ---------------------

 ---------
 good luck
 ---------
 Symbolic Z-matrix:
 Charge =  0 Multiplicity = 1

                         Standard orientation:
 ---------------------------------------------------------------------
 Center     Atomic      Atomic             Coordinates (Angstroms)
 Number     Number       Type             X           Y           Z
 ---------------------------------------------------------------------
      1          8           0       -2.522620    0.907365   -0.137186
      2          6           0       -1.408130    0.506676    0.156050
      3          6           0       -1.139947   -0.992616    0.360815
      4          6           0       -2.458436   -1.812707    0.419399
      5          6           0       -3.108388   -2.047605   -0.954112
      6          6           0       -2.251205   -3.141866    1.163069
      7          6           0       -0.125861   -1.534605   -0.697060
      8          6           0        1.324816   -1.225676   -0.401827
      9          6           0        2.213579   -2.267932   -0.111330
     10          6           0        3.556380   -2.020662    0.174789
     11          6           0        4.028473   -0.709281    0.174455
     12          6           0        3.151430    0.337037   -0.112180
     13          6           0        1.802166    0.100368   -0.402206
     14          6           0        0.881000    1.262896   -0.697440
     15          6           0       -0.245628    1.491037    0.360790
     16          6           0       -0.737719    2.963637    0.421103
     17          6           0       -1.094536    3.559015   -0.950876
     18          6           0        0.273694    3.855008    1.159382
     19          1           0       -0.647616   -1.084722    1.340528
     20          1           0       -3.162913   -1.211204    1.007051
     21          1           0       -2.489112   -2.685863   -1.596428
     22          1           0       -4.073062   -2.553923   -0.830476
     23          1           0       -3.289421   -1.102139   -1.471279
     24          1           0       -3.200613   -3.682637    1.252925
     25          1           0       -1.861372   -2.981275    2.175722
     26          1           0       -1.551253   -3.804276    0.637851
     27          1           0       -0.241797   -2.621743   -0.747623
     28          1           0       -0.405897   -1.156350   -1.689582
     29          1           0        1.844887   -3.291480   -0.112662
     30          1           0        4.226433   -2.847433    0.394932
     31          1           0        5.071795   -0.499264    0.394341
     32          1           0        3.519786    1.360702   -0.114017
     33          1           0        0.423933    1.149765   -1.689855
     34          1           0        1.484287    2.174687   -0.748099
     35          1           0        0.192951    1.247340    1.340065
     36          1           0       -1.661131    2.950127    1.013180
     37          1           0       -1.512797    4.564797   -0.825532
     38          1           0       -0.213515    3.654324   -1.597540
     39          1           0       -1.840222    2.946940   -1.464168
     40          1           0        1.232412    3.918686    0.628953
     41          1           0       -0.111929    4.877096    1.251395
     42          1           0        0.477002    3.482579    2.170877
 ---------------------------------------------------------------------

 SCF Done:  E(RB3LYP) =  -737.505049318     A.U. after   14 cycles

 The electronic state is 1-A.
 Alpha  occ. eigenvalues --  -19.13850 -10.26997 -10.19737 -10.19732 -10.19656
 Alpha  occ. eigenvalues --  -10.19655 -10.19603 -10.19554 -10.18921 -10.18883
 Alpha  occ. eigenvalues --  -10.18846 -10.18828 -10.18714 -10.18706 -10.17343
 Alpha  occ. eigenvalues --  -10.17341 -10.16495 -10.16491  -1.03775  -0.86421
 Alpha  occ. eigenvalues --   -0.82104  -0.81361  -0.77431  -0.76382  -0.72959
 Alpha  occ. eigenvalues --   -0.71897  -0.67799  -0.67797  -0.65521  -0.65315
 Alpha  occ. eigenvalues --   -0.60109  -0.57993  -0.57534  -0.53711  -0.51786
 Alpha  occ. eigenvalues --   -0.50831  -0.47971  -0.47386  -0.46690  -0.46009
 Alpha  occ. eigenvalues --   -0.43729  -0.43532  -0.43224  -0.42704  -0.41418
 Alpha  occ. eigenvalues --   -0.41279  -0.39723  -0.39350  -0.39298  -0.38733
 Alpha  occ. eigenvalues --   -0.37642  -0.37629  -0.36785  -0.35934  -0.35821
 Alpha  occ. eigenvalues --   -0.34791  -0.34342  -0.33840  -0.33069  -0.32794
 Alpha  occ. eigenvalues --   -0.32203  -0.31696  -0.31677  -0.30849  -0.24718
 Alpha  occ. eigenvalues --   -0.23803  -0.23649
 Alpha virt. eigenvalues --   -0.01530  -0.00259   0.00073   0.08266   0.08580
 Alpha virt. eigenvalues --    0.08912   0.10114   0.11662   0.12098   0.13612
 Alpha virt. eigenvalues --    0.13824   0.14584   0.15038   0.15461   0.15815

 Mulliken charges:
               1
     1  O   -0.453429
     2  C    0.430950
     3  C   -0.156877
     4  C   -0.068144
     5  C   -0.455039
     6  C   -0.453708
     7  C   -0.384039
     8  C    0.130229
     9  C   -0.193577
    10  C   -0.127084
    11  C   -0.127071
    12  C   -0.193600
    13  C    0.130218
    14  C   -0.383996
    15  C   -0.156808
    16  C   -0.068153
    17  C   -0.455141
    18  C   -0.453722
    19  H    0.143777
    20  H    0.142536
    21  H    0.134046
    22  H    0.139130
    23  H    0.168108
    24  H    0.145562
    25  H    0.140054
    26  H    0.137474
    27  H    0.157080
    28  H    0.159392
    29  H    0.123686
    30  H    0.128611
    31  H    0.128609
    32  H    0.123682
    33  H    0.159387
    34  H    0.157085
    35  H    0.143780
    36  H    0.142310
    37  H    0.139077
    38  H    0.134024
    39  H    0.168373
    40  H    0.137558
    41  H    0.145592
    42  H    0.140060
 Sum of Mulliken charges =  -0.00000

 Dipole moment (field-independent basis, Debye):
    X=              1.8405    Y=             -0.6607    Z=              0.5558  Tot=              2.0330
 Quadrupole moment (field-independent basis, Debye-Ang):
   XX=           -114.1431   YY=           -106.1379   ZZ=           -111.0718
   XY=              3.3095   XZ=             -0.2931   YZ=              0.1077

  Exact polarizability: 205.280  -3.529 196.695  11.237  -4.051 118.283
 Approx polarizability: 298.072  -7.370 280.206  22.547  -8.144 185.908

                      1                      2                      3
                      A                      A                      A
 Frequencies --     41.8714                50.7185                77.6976
 Red. masses --      4.4903                 3.3364                 3.4548
 Frc consts  --      0.0046                 0.0051                 0.0123
 IR Inten    --      0.9290                 0.0183                 0.0881

                      4                      5                      6
                      A                      A                      A
 Frequencies --     95.0665               111.3454               138.2441
 Red. masses --      2.4765                 3.3586                 3.3667
 Frc consts  --      0.0132                 0.0245                 0.0379
 IR Inten    --      0.0013                 0.9761                 0.0897

                      7                      8                      9
                      A                      A                      A
 Frequencies --    144.4144               187.4225               205.7479
 Red. masses --      3.3020                 3.2486                 3.1692
 Frc consts  --      0.0406                 0.0672                 0.0790
 IR Inten    --      0.0106                 1.5594                 0.1407

                     10                     11                     12
                      A                      A                      A
 Frequencies --    227.0973               230.8192               240.2702
 Red. masses --      1.2181                 1.2827                 1.5929
 Frc consts  --      0.0370                 0.0403                 0.0542
 IR Inten    --      0.1984                 0.2243                 0.1975

                     13                     14                     15
                      A                      A                      A
 Frequencies --    242.8870               245.4802               258.7889
 Red. masses --      1.3357                 1.4871                 1.7468
 Frc consts  --      0.0464                 0.0528                 0.0689
 IR Inten    --      0.1039                 0.0446                 0.0621

                     16                     17                     18
                      A                      A                      A
 Frequencies --    283.0739               324.2883               341.6971
 Red. masses --      3.2476                 2.8465                 2.9586
 Frc consts  --      0.1533                 0.1764                 0.2035
 IR Inten    --      6.2629                 1.6178                 0.3487

                     19                     20                     21
                      A                      A                      A
 Frequencies --    367.6628               372.0465               393.7241
 Red. masses --      3.8101                 3.2189                 2.4912
 Frc consts  --      0.3035                 0.2625                 0.2275
 IR Inten    --      3.3633                 0.3843                 3.9481

                     22                     23                     24
                      A                      A                      A
 Frequencies --    421.6622               427.1596               480.4117
 Red. masses --      2.4285                 2.3285                 3.5381
 Frc consts  --      0.2544                 0.2503                 0.4811
 IR Inten    --      0.8580                 1.1017                 4.1057

                     25                     26                     27
                      A                      A                      A
 Frequencies --    497.5687               534.2719               552.9739
 Red. masses --      2.9677                 2.7658                 3.2662
 Frc consts  --      0.4329                 0.4652                 0.5884
 IR Inten    --      0.6544                 1.5840                 0.0003

                     28                     29                     30
                      A                      A                      A
 Frequencies --    602.7505               634.4676               687.2987
 Red. masses --      3.9492                 4.6359                 3.8473
 Frc consts  --      0.8454                 1.0995                 1.0708
 IR Inten    --      0.0191                 2.5691                 4.1396

                     31                     32                     33
                      A                      A                      A
 Frequencies --    715.4554               743.7532               770.5256
 Red. masses --      3.4391                 4.4109                 1.4181
 Frc consts  --      1.0372                 1.4376                 0.4960
 IR Inten    --      7.6387                 0.0375                29.0405

                     34                     35                     36
                      A                      A                      A
 Frequencies --    785.5916               803.3865               809.6500
 Red. masses --      2.7961                 2.6354                 3.4014
 Frc consts  --      1.0167                 1.0022                 1.3137
 IR Inten    --      8.9186                 3.4365                 2.1373

                     37                     38                     39
                      A                      A                      A
 Frequencies --    860.8228               865.3152               895.6524
 Red. masses --      2.9074                 2.0506                 2.0705
 Frc consts  --      1.2694                 0.9047                 0.9786
 IR Inten    --      0.7887                 0.3088                 0.0062

                     40                     41                     42
                      A                      A                      A
 Frequencies --    935.6426               936.5098               936.8522
 Red. masses --      2.2177                 1.2744                 1.2853
 Frc consts  --      1.1438                 0.6585                 0.6647
 IR Inten    --     12.6721                 4.2636                 4.3515

                     43                     44                     45
                      A                      A                      A
 Frequencies --    943.8520               954.0837               972.8314
 Red. masses --      1.3496                 1.8190                 1.5736
 Frc consts  --      0.7084                 0.9755                 0.8774
 IR Inten    --      0.3284                 0.1362                 0.7302

                     46                     47                     48
                      A                      A                      A
 Frequencies --    977.8667               981.9815               983.0265
 Red. masses --      1.4910                 2.0422                 1.2773
 Frc consts  --      0.8400                 1.1602                 0.7272
 IR Inten    --      0.4860                 0.2246                 0.6276

                     49                     50                     51
                      A                      A                      A
 Frequencies --    985.9889               993.4677              1048.8535
 Red. masses --      2.3439                 2.5854                 2.1861
 Frc consts  --      1.3426                 1.5035                 1.4169
 IR Inten    --      0.1328                24.7491                 0.3413

                     52                     53                     54
                      A                      A                      A
 Frequencies --   1070.5471              1081.5804              1123.3469
 Red. masses --      1.8808                 2.2921                 1.9492
 Frc consts  --      1.2700                 1.5798                 1.4492
 IR Inten    --     36.5034                 2.3388                 8.9142

                     55                     56                     57
                      A                      A                      A
 Frequencies --   1131.9999              1147.9567              1164.3387
 Red. masses --      1.9324                 1.6832                 2.3840
 Frc consts  --      1.4589                 1.3069                 1.9042
 IR Inten    --      1.1032                 0.0139                10.8249

                     58                     59                     60
                      A                      A                      A
 Frequencies --   1168.3371              1196.4256              1203.1635
 Red. masses --      1.8701                 1.1016                 1.2349
 Frc consts  --      1.5041                 0.9291                 1.0533
 IR Inten    --      0.1915                 0.0730                 0.6681

                     61                     62                     63
                      A                      A                      A
 Frequencies --   1211.9744              1213.6233              1220.3066
 Red. masses --      2.0042                 1.7967                 2.3984
 Frc consts  --      1.7346                 1.5592                 2.1043
 IR Inten    --      7.5434                 3.4180                 5.4173

                     64                     65                     66
                      A                      A                      A
 Frequencies --   1228.1892              1250.9214              1287.6681
 Red. masses --      1.5614                 2.1259                 1.2721
 Frc consts  --      1.3877                 1.9600                 1.2428
 IR Inten    --      0.0886                 0.3062                 3.1192

                     67                     68                     69
                      A                      A                      A
 Frequencies --   1300.9847              1329.5645              1330.9479
 Red. masses --      1.4695                 1.3201                 1.4602
 Frc consts  --      1.4654                 1.3750                 1.5240
 IR Inten    --      3.5767                 4.6875                12.2795

                     70                     71                     72
                      A                      A                      A
 Frequencies --   1342.2144              1359.5278              1364.9616
 Red. masses --      1.3113                 1.9566                 1.4169
 Frc consts  --      1.3919                 2.1307                 1.5554
 IR Inten    --      1.1270                 8.8930                 4.2127

                     73                     74                     75
                      A                      A                      A
 Frequencies --   1368.8105              1391.9439              1393.5459
 Red. masses --      1.8875                 1.3200                 1.3316
 Frc consts  --      2.0837                 1.5068                 1.5236
 IR Inten    --      4.0711                 3.5702                 1.3388

                     76                     77                     78
                      A                      A                      A
 Frequencies --   1399.2354              1408.1144              1428.0503
 Red. masses --      1.4750                 1.6080                 1.2745
 Frc consts  --      1.7014                 1.8785                 1.5313
 IR Inten    --      0.4941                 9.1564                 0.7898

                     79                     80                     81
                      A                      A                      A
 Frequencies --   1429.4783              1448.6679              1449.3697
 Red. masses --      1.2818                 1.2309                 1.2323
 Frc consts  --      1.5433                 1.5219                 1.5252
 IR Inten    --     20.6131                10.5402                 2.2769

                     82                     83                     84
                      A                      A                      A
 Frequencies --   1497.4383              1511.5922              1518.5434
 Red. masses --      1.9583                 1.1716                 1.0800
 Frc consts  --      2.5872                 1.5773                 1.4673
 IR Inten    --      1.9959                 5.5252                 1.3841

                     85                     86                     87
                      A                      A                      A
 Frequencies --   1520.3668              1520.9294              1530.2653
 Red. masses --      1.0499                 1.0595                 1.0623
 Frc consts  --      1.4299                 1.4441                 1.4657
 IR Inten    --      0.7794                 1.0531                 1.2532

                     88                     89                     90
                      A                      A                      A
 Frequencies --   1533.5757              1536.9293              1537.4521
 Red. masses --      1.1992                 1.0503                 1.0516
 Frc consts  --      1.6617                 1.4618                 1.4645
 IR Inten    --     12.0425                 4.4451                 5.4306

                     91                     92                     93
                      A                      A                      A
 Frequencies --   1541.9123              1544.2196              1545.3092
 Red. masses --      1.6337                 1.0480                 1.1616
 Frc consts  --      2.2885                 1.4724                 1.6344
 IR Inten    --     21.3273                 0.0074                 5.4108

                     94                     95                     96
                      A                      A                      A
 Frequencies --   1638.3760              1663.4408              1781.8935
 Red. masses --      5.9242                 5.7831                11.3276
 Frc consts  --      9.3693                 9.4281                21.1910
 IR Inten    --      0.1740                 0.4853               144.9172

                     97                     98                     99
                      A                      A                      A
 Frequencies --   3010.8936              3021.1264              3037.6131
 Red. masses --      1.0812                 1.0803                 1.0366
 Frc consts  --      5.7751                 5.8092                 5.6353
 IR Inten    --      3.6695                 7.8878                19.1636

                    100                    101                    102
                      A                      A                      A
 Frequencies --   3037.9038              3038.6557              3041.6754
 Red. masses --      1.0366                 1.0666                 1.0663
 Frc consts  --      5.6363                 5.8024                 5.8125
 IR Inten    --     27.0949                 1.4267                35.1712

                    103                    104                    105
                      A                      A                      A
 Frequencies --   3048.8370              3049.5237              3053.6688
 Red. masses --      1.0487                 1.0499                 1.0747
 Frc consts  --      5.7433                 5.7525                 5.9047
 IR Inten    --     26.0520                24.9665                16.3923

                    106                    107                    108
                      A                      A                      A
 Frequencies --   3054.0846              3095.8048              3096.7748
 Red. masses --      1.0751                 1.0971                 1.0984
 Frc consts  --      5.9083                 6.1950                 6.2064
 IR Inten    --     15.7101                16.8870                23.0022

                    109                    110                    111
                      A                      A                      A
 Frequencies --   3099.7402              3100.3364              3105.5767
 Red. masses --      1.1000                 1.0991                 1.1007
 Frc consts  --      6.2270                 6.2243                 6.2546
 IR Inten    --     18.0914                 2.2305                17.2910

                    112                    113                    114
                      A                      A                      A
 Frequencies --   3105.8224              3108.9199              3109.2667
 Red. masses --      1.1007                 1.1007                 1.1006
 Frc consts  --      6.2557                 6.2681                 6.2690
 IR Inten    --     69.8865                40.6049               109.3016

                    115                    116                    117
                      A                      A                      A
 Frequencies --   3147.4846              3147.6648              3172.1877
 Red. masses --      1.0992                 1.0993                 1.0860
 Frc consts  --      6.4160                 6.4170                 6.4387
 IR Inten    --     25.5265                 5.4132                14.6680

                    118                    119                    120
                      A                      A                      A
 Frequencies --   3176.2873              3191.5007              3206.5674
 Red. masses --      1.0887                 1.0915                 1.0974
 Frc consts  --      6.4712                 6.5501                 6.6478
 IR Inten    --      2.1365                27.7535                30.6733

 - Thermochemistry -
 -------------------
 Temperature   298.150 Kelvin.  Pressure   1.00000 Atm.
 Atom     1 has atomic number  8 and mass  15.99491

 Molecular mass:   244.18272 amu.
 Principal axes and moments of inertia in atomic units:
                           1         2         3
     Eigenvalues --  4231.481854517.952567921.74838
           X            0.94210   0.33528   0.00547
           Y           -0.33527   0.94212  -0.00198
           Z           -0.00582   0.00003   0.99998
 This molecule is an asymmetric top.
 Rotational symmetry number  1.
 Warning -- assumption of classical behavior for rotation
           may cause significant error
 Rotational temperatures (Kelvin)      0.02047     0.01917     0.01093
 Rotational constants (GHZ):           0.42650     0.39946     0.22782
 Zero-point vibrational energy     983605.5 (Joules/Mol)
                                  235.08735 (Kcal/Mol)
 Warning -- explicit consideration of  28 degrees of freedom as
           vibrations may cause significant error
 Vibrational temperatures:     60.24    72.97   111.79   136.78   160.20
          (Kelvin)            198.90   207.78   269.66   296.03   326.74
                              332.10   345.70   349.46   353.19   372.34
                              407.28   466.58   491.63   528.98   535.29
                              566.48   606.68   614.59   691.21   715.89
                              768.70   795.61   867.22   912.86   988.87
                             1029.38  1070.09  1108.61  1130.29  1155.89
                             1164.91  1238.53  1245.00  1288.64  1346.18
                             1347.43  1347.92  1357.99  1372.71  1399.69
                             1406.93  1412.85  1414.36  1418.62  1429.38
                             1509.07  1540.28  1556.15  1616.25  1628.70
                             1651.65  1675.22  1680.98  1721.39  1731.08
                             1743.76  1746.13  1755.75  1767.09  1799.80
                             1852.67  1871.83  1912.95  1914.94  1931.15
                             1956.06  1963.88  1969.41  2002.70  2005.00
                             2013.19  2025.96  2054.65  2056.70  2084.31
                             2085.32  2154.48  2174.84  2184.85  2187.47
                             2188.28  2201.71  2206.47  2211.30  2212.05
                             2218.47  2221.79  2223.36  2357.26  2393.32
                             2563.75  4332.00  4346.73  4370.45  4370.87
                             4371.95  4376.29  4386.60  4387.58  4393.55
                             4394.15  4454.17  4455.57  4459.83  4460.69
                             4468.23  4468.59  4473.04  4473.54  4528.53
                             4528.79  4564.07  4569.97  4591.86  4613.54

 Zero-point correction=                           0.374636 (Hartree/Particle)
 Thermal correction to Energy=                    0.392541
 Thermal correction to Enthalpy=                  0.393485
 Thermal correction to Gibbs Free Energy=         0.329823
 Sum of electronic and zero-point Energies=           -737.130414
 Sum of electronic and thermal Energies=              -737.112508
 Sum of electronic and thermal Enthalpies=            -737.111564
 Sum of electronic and thermal Free Energies=         -737.175226

                     E (Thermal)             CV                S
                      KCal/Mol        Cal/Mol-Kelvin    Cal/Mol-Kelvin
 Total                  246.323             70.668            133.988
 Electronic               0.000              0.000              0.000
 Translational            0.889              2.981             42.379
 Rotational               0.889              2.981             33.382
 Vibrational            244.546             64.706             58.228
 Vibration     1          0.594              1.980              5.169
 Vibration     2          0.595              1.977              4.789
 Vibration     3          0.599              1.964              3.948
 Vibration     4          0.603              1.953              3.553
 Vibration     5          0.607              1.940              3.245
 Vibration     6          0.614              1.915              2.828
 Vibration     7          0.616              1.909              2.745
 Vibration     8          0.632              1.857              2.253
 Vibration     9          0.640              1.832              2.081
 Vibration    10          0.651              1.800              1.902
 Vibration    11          0.653              1.794              1.873
 Vibration    12          0.657              1.779              1.801
 Vibration    13          0.659              1.775              1.782
 Vibration    14          0.660              1.770              1.763
 Vibration    15          0.668              1.748              1.670
 Vibration    16          0.682              1.705              1.515
 Vibration    17          0.709              1.627              1.288
 Vibration    18          0.721              1.592              1.204
 Vibration    19          0.740              1.539              1.090
 Vibration    20          0.744              1.530              1.071
 Vibration    21          0.761              1.484              0.986
 Vibration    22          0.784              1.423              0.886
 Vibration    23          0.789              1.411              0.868
 Vibration    24          0.837              1.293              0.709
 Vibration    25          0.853              1.255              0.664
 Vibration    26          0.889              1.174              0.578
 Vibration    27          0.908              1.133              0.538
 Vibration    28          0.961              1.026              0.445

 Normal termination of Gaussian 16 at Fri Feb 23 22:50:33 2024.
