 Gaussian 16, Revision A.03,
 Gaussian 16:  EM64M-G16RevA.03 25-Dec-2016

 ---------------------
 # freq b3lyp/6-31g(d)
 ---------------------

 ---------
 good luck
 ---------
 Symbolic Z-matrix:
 Charge =  0 Multiplicity = 1

                         Standard orientation:
 ---------------------------------------------------------------------
 Center     Atomic      Atomic             Coordinates (Angstroms)
 Number     Number       Type             X           Y           Z
 ---------------------------------------------------------------------
      1          8           0       -0.729067   -1.820123   -0.986475
      2          6           0       -0.488101   -1.188831    0.028530
      3          6           0       -1.454388   -0.129557    0.566417
      4          6           0       -2.629068    0.097531   -0.390069
      5          6           0       -0.746367    1.179088    0.997269
      6          6           0       -0.049211    1.990504   -0.108513
      7          6           0        1.060294    1.278295   -0.908596
      8          6           0        2.169279    0.594809   -0.069293
      9          6           0        2.048476   -0.934551    0.063016
     10          6           0        0.800205   -1.465174    0.803946
     11          1           0       -1.848253   -0.571808    1.498554
     12          1           0       -2.290892    0.501084   -1.349730
     13          1           0       -3.145276   -0.842177   -0.602679
     14          1           0       -3.347276    0.801405    0.045496
     15          1           0       -0.021228    0.954406    1.788573
     16          1           0       -1.501809    1.821455    1.468649
     17          1           0       -0.799206    2.366366   -0.816663
     18          1           0        0.382834    2.881618    0.368604
     19          1           0        1.519078    2.034703   -1.557986
     20          1           0        0.616908    0.543326   -1.591813
     21          1           0        3.142050    0.798383   -0.534432
     22          1           0        2.220645    1.051378    0.929827
     23          1           0        2.936895   -1.314753    0.583488
     24          1           0        2.055968   -1.383764   -0.938461
     25          1           0        0.758147   -1.058336    1.820510
     26          1           0        0.887241   -2.554986    0.883625
 ---------------------------------------------------------------------

 SCF Done:  E(RB3LYP) =  -427.822823992     A.U. after   13 cycles

 The electronic state is 1-A.
 Alpha  occ. eigenvalues --  -19.12953 -10.26564 -10.19578 -10.18857 -10.18847
 Alpha  occ. eigenvalues --  -10.18769 -10.18347 -10.18328 -10.18022 -10.17069
 Alpha  occ. eigenvalues --   -1.02974  -0.82276  -0.78805  -0.76246  -0.71010
 Alpha  occ. eigenvalues --   -0.66281  -0.64759  -0.57979  -0.56254  -0.51318
 Alpha  occ. eigenvalues --   -0.48403  -0.46884  -0.45458  -0.43660  -0.42740
 Alpha  occ. eigenvalues --   -0.42366  -0.41591  -0.38890  -0.37576  -0.37355
 Alpha  occ. eigenvalues --   -0.35948  -0.35624  -0.34305  -0.34119  -0.33235
 Alpha  occ. eigenvalues --   -0.31735  -0.31005  -0.30260  -0.23425
 Alpha virt. eigenvalues --   -0.01067   0.07761   0.09789   0.10505   0.12677
 Alpha virt. eigenvalues --    0.12773   0.14108   0.15370   0.16062   0.16206
 Alpha virt. eigenvalues --    0.16750   0.17884   0.18231   0.18939   0.19790

 Mulliken charges:
               1
     1  O   -0.464808
     2  C    0.459763
     3  C   -0.172930
     4  C   -0.441032
     5  C   -0.274621
     6  C   -0.261466
     7  C   -0.282699
     8  C   -0.261457
     9  C   -0.270264
    10  C   -0.334711
    11  H    0.147205
    12  H    0.156510
    13  H    0.161936
    14  H    0.134093
    15  H    0.135559
    16  H    0.138764
    17  H    0.138418
    18  H    0.132606
    19  H    0.136639
    20  H    0.158388
    21  H    0.137523
    22  H    0.131166
    23  H    0.136428
    24  H    0.158104
    25  H    0.137135
    26  H    0.163751
 Sum of Mulliken charges =  -0.00000

 Dipole moment (field-independent basis, Debye):
    X=              0.7737    Y=              1.5454    Z=              1.9714  Tot=              2.6218
 Quadrupole moment (field-independent basis, Debye-Ang):
   XX=            -61.4322   YY=            -65.6311   ZZ=            -63.8305
   XY=             -1.9171   XZ=             -1.9236   YZ=             -4.0830

  Exact polarizability:  99.749  -1.810  92.849   0.541   1.288  83.370
 Approx polarizability: 127.423   0.300 128.794   3.408   9.268 134.182

                      1                      2                      3
                      A                      A                      A
 Frequencies --     75.2823               135.8388               177.6301
 Red. masses --      3.8735                 3.7977                 2.2312
 Frc consts  --      0.0129                 0.0413                 0.0415
 IR Inten    --      1.7195                 3.1835                 0.3752

                      4                      5                      6
                      A                      A                      A
 Frequencies --    199.0423               228.3952               245.5635
 Red. masses --      1.2367                 2.2362                 2.2235
 Frc consts  --      0.0289                 0.0687                 0.0790
 IR Inten    --      0.2623                 0.2742                 0.5174

                      7                      8                      9
                      A                      A                      A
 Frequencies --    270.7593               305.4312               359.1276
 Red. masses --      2.9160                 2.7869                 2.2278
 Frc consts  --      0.1260                 0.1532                 0.1693
 IR Inten    --      0.3049                 5.7953                 0.6166

                     10                     11                     12
                      A                      A                      A
 Frequencies --    403.4393               432.2098               459.6954
 Red. masses --      2.2159                 2.1664                 1.7924
 Frc consts  --      0.2125                 0.2384                 0.2232
 IR Inten    --      0.5620                 2.1383                 0.2438

                     13                     14                     15
                      A                      A                      A
 Frequencies --    531.1905               580.5737               636.8035
 Red. masses --      2.8376                 3.3206                 2.6823
 Frc consts  --      0.4717                 0.6595                 0.6409
 IR Inten    --      3.8801                 2.6343                 1.1490

                     16                     17                     18
                      A                      A                      A
 Frequencies --    738.1018               751.6714               799.5760
 Red. masses --      1.6406                 2.2976                 2.5073
 Frc consts  --      0.5266                 0.7649                 0.9445
 IR Inten    --      4.1551                 0.7824                 0.9872

                     19                     20                     21
                      A                      A                      A
 Frequencies --    843.3193               876.3861               883.0770
 Red. masses --      2.2174                 1.6968                 1.9273
 Frc consts  --      0.9291                 0.7678                 0.8855
 IR Inten    --      6.1572                 0.6570                 5.2636

                     22                     23                     24
                      A                      A                      A
 Frequencies --    919.0934               948.0397               993.5972
 Red. masses --      2.0091                 1.9755                 1.7237
 Frc consts  --      0.9999                 1.0461                 1.0026
 IR Inten    --      4.5206                 3.1645                 1.9652

                     25                     26                     27
                      A                      A                      A
 Frequencies --   1008.7230              1026.7040              1067.6660
 Red. masses --      1.6620                 1.7344                 1.7655
 Frc consts  --      0.9964                 1.0772                 1.1858
 IR Inten    --      1.7945                 8.5757                 1.1092

                     28                     29                     30
                      A                      A                      A
 Frequencies --   1074.5941              1102.0859              1118.5436
 Red. masses --      2.3619                 2.3110                 1.4447
 Frc consts  --      1.6070                 1.6538                 1.0649
 IR Inten    --      2.1991                18.6899                15.9213

                     31                     32                     33
                      A                      A                      A
 Frequencies --   1148.9819              1164.5452              1189.8994
 Red. masses --      2.1710                 1.7945                 1.2595
 Frc consts  --      1.6886                 1.4338                 1.0506
 IR Inten    --     13.2410                 9.0506                 3.5441

                     34                     35                     36
                      A                      A                      A
 Frequencies --   1224.3165              1254.5064              1273.4832
 Red. masses --      1.4685                 1.2409                 1.3800
 Frc consts  --      1.2969                 1.1507                 1.3186
 IR Inten    --     17.8780                 0.7435                 1.4613

                     37                     38                     39
                      A                      A                      A
 Frequencies --   1292.1059              1309.1499              1340.1086
 Red. masses --      1.2427                 1.2948                 1.2302
 Frc consts  --      1.2224                 1.3075                 1.3017
 IR Inten    --      1.7390                 1.7135                 0.7531

                     40                     41                     42
                      A                      A                      A
 Frequencies --   1366.6393              1378.1550              1386.3416
 Red. masses --      1.3485                 1.3553                 1.5027
 Frc consts  --      1.4839                 1.5167                 1.7016
 IR Inten    --      3.8719                 0.0558                11.1206

                     43                     44                     45
                      A                      A                      A
 Frequencies --   1400.8307              1403.0458              1415.0384
 Red. masses --      1.4681                 1.3663                 1.4102
 Frc consts  --      1.6974                 1.5846                 1.6636
 IR Inten    --      5.1943                 3.7789                 6.3905

                     46                     47                     48
                      A                      A                      A
 Frequencies --   1422.5094              1442.2250              1504.7584
 Red. masses --      1.3891                 1.2568                 1.0893
 Frc consts  --      1.6562                 1.5402                 1.4532
 IR Inten    --      1.0222                 7.6496                 2.3015

                     49                     50                     51
                      A                      A                      A
 Frequencies --   1514.5711              1517.9333              1520.0958
 Red. masses --      1.0748                 1.0898                 1.0706
 Frc consts  --      1.4526                 1.4794                 1.4575
 IR Inten    --      2.2246                 3.4450                 6.9429

                     52                     53                     54
                      A                      A                      A
 Frequencies --   1522.1965              1531.4864              1535.9715
 Red. masses --      1.0711                 1.0596                 1.0876
 Frc consts  --      1.4623                 1.4643                 1.5118
 IR Inten    --      8.7030                 0.6696                 2.3176

                     55                     56                     57
                      A                      A                      A
 Frequencies --   1538.5730              1791.9532              2977.9057
 Red. masses --      1.0784                11.1530                 1.0810
 Frc consts  --      1.5041                21.1006                 5.6481
 IR Inten    --     18.0845               117.4739                18.1552

                     58                     59                     60
                      A                      A                      A
 Frequencies --   3026.8235              3027.1013              3040.1940
 Red. masses --      1.0648                 1.0648                 1.0667
 Frc consts  --      5.7474                 5.7489                 5.8089
 IR Inten    --     26.4224                 9.2740                18.3442

                     61                     62                     63
                      A                      A                      A
 Frequencies --   3042.8210              3048.1850              3057.9764
 Red. masses --      1.0629                 1.0632                 1.0622
 Frc consts  --      5.7981                 5.8204                 5.8525
 IR Inten    --     23.7813                29.1725                19.4480

                     64                     65                     66
                      A                      A                      A
 Frequencies --   3059.7640              3062.3833              3070.0391
 Red. masses --      1.0679                 1.0706                 1.0898
 Frc consts  --      5.8907                 5.9158                 6.0518
 IR Inten    --      9.1733                34.1670                50.1890

                     67                     68                     69
                      A                      A                      A
 Frequencies --   3080.6119              3082.5957              3087.0159
 Red. masses --      1.0993                 1.1024                 1.0995
 Frc consts  --      6.1467                 6.1720                 6.1734
 IR Inten    --     56.6053                 9.6670                70.8045

                     70                     71                     72
                      A                      A                      A
 Frequencies --   3106.8050              3125.7026              3144.0030
 Red. masses --      1.1039                 1.1013                 1.1011
 Frc consts  --      6.2779                 6.3395                 6.4129
 IR Inten    --     39.6941                27.4118                18.8809

 - Thermochemistry -
 -------------------
 Temperature   298.150 Kelvin.  Pressure   1.00000 Atm.
 Atom     1 has atomic number  8 and mass  15.99491

 Molecular mass:   140.12012 amu.
 Principal axes and moments of inertia in atomic units:
                           1         2         3
     Eigenvalues --  1089.609151402.793741970.09028
           X            0.99832  -0.05791  -0.00092
           Y            0.05786   0.99793  -0.02816
           Z            0.00255   0.02806   0.99960
 This molecule is an asymmetric top.
 Rotational symmetry number  1.
 Warning -- assumption of classical behavior for rotation
           may cause significant error
 Rotational temperatures (Kelvin)      0.07949     0.06174     0.04396
 Rotational constants (GHZ):           1.65632     1.28653     0.91607
 Zero-point vibrational energy     625775.6 (Joules/Mol)
                                  149.56396 (Kcal/Mol)
 Warning -- explicit consideration of  14 degrees of freedom as
           vibrations may cause significant error
 Vibrational temperatures:    108.31   195.44   255.57   286.38   328.61
          (Kelvin)            353.31   389.56   439.45   516.70   580.46
                              621.85   661.40   764.26   835.32   916.22
                             1061.96  1081.49  1150.41  1213.35  1260.92
                             1270.55  1322.37  1364.02  1429.56  1451.33
                             1477.20  1536.13  1546.10  1585.66  1609.33
                             1653.13  1675.52  1712.00  1761.52  1804.95
                             1832.26  1859.05  1883.57  1928.12  1966.29
                             1982.86  1994.64  2015.48  2018.67  2035.92
                             2046.67  2075.04  2165.01  2179.13  2183.97
                             2187.08  2190.10  2203.47  2209.92  2213.66
                             2578.22  4284.54  4354.92  4355.32  4374.16
                             4377.94  4385.66  4399.75  4402.32  4406.09
                             4417.10  4432.31  4435.17  4441.53  4470.00
                             4497.19  4523.52

 Zero-point correction=                           0.238345 (Hartree/Particle)
 Thermal correction to Energy=                    0.248362
 Thermal correction to Enthalpy=                  0.249306
 Thermal correction to Gibbs Free Energy=         0.203745
 Sum of electronic and zero-point Energies=           -427.584479
 Sum of electronic and thermal Energies=              -427.574462
 Sum of electronic and thermal Enthalpies=            -427.573518
 Sum of electronic and thermal Free Energies=         -427.619079

                     E (Thermal)             CV                S
                      KCal/Mol        Cal/Mol-Kelvin    Cal/Mol-Kelvin
 Total                  155.849             39.485             95.892
 Electronic               0.000              0.000              0.000
 Translational            0.889              2.981             40.724
 Rotational               0.889              2.981             29.489
 Vibrational            154.072             33.524             25.680
 Vibration     1          0.599              1.965              4.010
 Vibration     2          0.614              1.918              2.862
 Vibration     3          0.628              1.870              2.353
 Vibration     4          0.637              1.841              2.142
 Vibration     5          0.651              1.798              1.892
 Vibration     6          0.660              1.770              1.762
 Vibration     7          0.674              1.727              1.591
 Vibration     8          0.696              1.663              1.387
 Vibration     9          0.734              1.556              1.126
 Vibration    10          0.769              1.463              0.950
 Vibration    11          0.793              1.400              0.851
 Vibration    12          0.818              1.339              0.767
 Vibration    13          0.886              1.181              0.585
 Vibration    14          0.937              1.073              0.484

 Normal termination of Gaussian 16 at Wed Feb 21 19:45:23 2024.
