 Gaussian 16, Revision A.03,
 Gaussian 16:  EM64M-G16RevA.03 25-Dec-2016

 ---------------------
 # freq b3lyp/6-31g(d)
 ---------------------

 ---------
 good luck
 ---------
 Symbolic Z-matrix:
 Charge =  0 Multiplicity = 1

                         Standard orientation:
 ---------------------------------------------------------------------
 Center     Atomic      Atomic             Coordinates (Angstroms)
 Number     Number       Type             X           Y           Z
 ---------------------------------------------------------------------
      1          8           0       -0.863730   -1.516856    1.442023
      2          6           0       -0.744869   -0.896817    0.398986
      3          6           0       -1.427144    0.460645    0.211119
      4          6           0       -2.743278    0.235150   -0.565469
      5          6           0       -0.550427    1.518587   -0.484399
      6          6           0        0.695311    1.977163    0.292977
      7          6           0        1.717411    0.895416    0.696716
      8          6           0        2.219092   -0.024287   -0.444697
      9          6           0        1.588336   -1.428106   -0.481825
     10          6           0        0.067722   -1.489646   -0.752229
     11          1           0       -1.681992    0.803399    1.221906
     12          1           0       -3.380430   -0.495910   -0.056958
     13          1           0       -2.553020   -0.126680   -1.583367
     14          1           0       -3.300167    1.175555   -0.646620
     15          1           0       -0.256830    1.155778   -1.478297
     16          1           0       -1.176863    2.401180   -0.672309
     17          1           0        1.208709    2.731285   -0.320131
     18          1           0        0.371700    2.498934    1.204521
     19          1           0        1.308617    0.279010    1.507122
     20          1           0        2.575224    1.418291    1.138213
     21          1           0        2.079274    0.470885   -1.416615
     22          1           0        3.302434   -0.163147   -0.339422
     23          1           0        1.777939   -1.934446    0.473492
     24          1           0        2.091952   -2.020869   -1.256192
     25          1           0       -0.165092   -1.004209   -1.706682
     26          1           0       -0.224535   -2.542824   -0.831913
 ---------------------------------------------------------------------

 SCF Done:  E(RB3LYP) =  -427.822591849     A.U. after   13 cycles

 The electronic state is 1-A.
 Alpha  occ. eigenvalues --  -19.12818 -10.26480 -10.19327 -10.18885 -10.18761
 Alpha  occ. eigenvalues --  -10.18717 -10.18565 -10.18378 -10.18349 -10.18031
 Alpha  occ. eigenvalues --   -1.02831  -0.82398  -0.78942  -0.76535  -0.71033
 Alpha  occ. eigenvalues --   -0.66493  -0.64148  -0.59086  -0.56332  -0.51543
 Alpha  occ. eigenvalues --   -0.48266  -0.46856  -0.44778  -0.44085  -0.43009
 Alpha  occ. eigenvalues --   -0.42435  -0.40610  -0.39790  -0.39264  -0.36868
 Alpha  occ. eigenvalues --   -0.36466  -0.35657  -0.34602  -0.33900  -0.33207
 Alpha  occ. eigenvalues --   -0.31914  -0.31184  -0.30284  -0.23200
 Alpha virt. eigenvalues --   -0.01151   0.07806   0.09731   0.11021   0.11605
 Alpha virt. eigenvalues --    0.13458   0.14022   0.15270   0.15896   0.16124
 Alpha virt. eigenvalues --    0.16341   0.17268   0.18176   0.18772   0.19232

 Mulliken charges:
               1
     1  O   -0.465428
     2  C    0.454683
     3  C   -0.149819
     4  C   -0.463819
     5  C   -0.272042
     6  C   -0.262009
     7  C   -0.281855
     8  C   -0.260906
     9  C   -0.271603
    10  C   -0.335746
    11  H    0.146829
    12  H    0.164115
    13  H    0.147466
    14  H    0.153850
    15  H    0.133254
    16  H    0.136143
    17  H    0.132346
    18  H    0.134646
    19  H    0.158250
    20  H    0.136903
    21  H    0.131164
    22  H    0.137694
    23  H    0.157685
    24  H    0.136936
    25  H    0.137007
    26  H    0.164256
 Sum of Mulliken charges =  -0.00000

 Dipole moment (field-independent basis, Debye):
    X=              0.5071    Y=              1.4884    Z=             -2.1926  Tot=              2.6982
 Quadrupole moment (field-independent basis, Debye-Ang):
   XX=            -60.9030   YY=            -64.3598   ZZ=            -66.1911
   XY=             -2.1193   XZ=              2.0593   YZ=              4.3700

  Exact polarizability:  99.426  -2.073  94.328  -0.529  -0.238  83.950
 Approx polarizability: 125.546  -1.795 129.435  -3.279  -7.783 136.308

                      1                      2                      3
                      A                      A                      A
 Frequencies --     76.1868               128.0426               189.8197
 Red. masses --      3.8214                 3.7919                 2.2874
 Frc consts  --      0.0131                 0.0366                 0.0486
 IR Inten    --      2.4000                 3.2022                 0.7801

                      4                      5                      6
                      A                      A                      A
 Frequencies --    210.5523               222.1847               238.3236
 Red. masses --      1.8650                 1.8655                 1.8943
 Frc consts  --      0.0487                 0.0543                 0.0634
 IR Inten    --      0.6984                 0.1145                 0.4624

                      7                      8                      9
                      A                      A                      A
 Frequencies --    245.3906               273.5503               344.9212
 Red. masses --      2.6107                 2.1171                 2.1399
 Frc consts  --      0.0926                 0.0933                 0.1500
 IR Inten    --      0.7309                 0.0919                 1.9359

                     10                     11                     12
                      A                      A                      A
 Frequencies --    375.8719               458.0456               496.0280
 Red. masses --      2.3398                 1.7208                 2.3626
 Frc consts  --      0.1948                 0.2127                 0.3425
 IR Inten    --      0.6059                 0.3615                 1.1645

                     13                     14                     15
                      A                      A                      A
 Frequencies --    502.2091               523.6252               685.0743
 Red. masses --      3.2131                 2.6828                 3.0476
 Frc consts  --      0.4775                 0.4334                 0.8427
 IR Inten    --      4.1301                 5.6548                 0.8781

                     16                     17                     18
                      A                      A                      A
 Frequencies --    729.1448               765.3221               800.8801
 Red. masses --      1.8051                 2.2653                 2.0947
 Frc consts  --      0.5654                 0.7817                 0.7916
 IR Inten    --      2.6518                 1.6633                 1.3253

                     19                     20                     21
                      A                      A                      A
 Frequencies --    844.8438               879.3611               891.1468
 Red. masses --      2.4438                 1.7239                 1.8162
 Frc consts  --      1.0277                 0.7854                 0.8498
 IR Inten    --      6.8468                 3.3270                 2.7279

                     22                     23                     24
                      A                      A                      A
 Frequencies --    924.1057               954.3588               981.9368
 Red. masses --      1.9956                 1.6773                 1.6040
 Frc consts  --      1.0041                 0.9001                 0.9112
 IR Inten    --      3.6156                 6.1068                 9.6921

                     25                     26                     27
                      A                      A                      A
 Frequencies --   1009.8985              1026.9381              1069.6420
 Red. masses --      2.1399                 1.9155                 1.6727
 Frc consts  --      1.2859                 1.1902                 1.1276
 IR Inten    --      0.5497                 9.3539                 5.0738

                     28                     29                     30
                      A                      A                      A
 Frequencies --   1075.5006              1084.6197              1121.5593
 Red. masses --      2.7748                 1.7743                 2.3167
 Frc consts  --      1.8911                 1.2298                 1.7170
 IR Inten    --      0.6273                12.0263                 0.2306

                     31                     32                     33
                      A                      A                      A
 Frequencies --   1139.2577              1170.9242              1208.1995
 Red. masses --      1.6106                 1.6172                 1.4070
 Frc consts  --      1.2316                 1.3064                 1.2101
 IR Inten    --      0.8974                16.2798                 5.9750

                     34                     35                     36
                      A                      A                      A
 Frequencies --   1237.6270              1252.4905              1277.9379
 Red. masses --      1.3973                 1.5254                 1.2970
 Frc consts  --      1.2610                 1.4099                 1.2480
 IR Inten    --      7.0601                14.8989                 5.6259

                     37                     38                     39
                      A                      A                      A
 Frequencies --   1304.3606              1320.7277              1343.3705
 Red. masses --      1.2367                 1.2111                 1.2208
 Frc consts  --      1.2397                 1.2447                 1.2980
 IR Inten    --      4.7539                 0.6305                 2.5599

                     40                     41                     42
                      A                      A                      A
 Frequencies --   1361.4628              1374.1658              1385.0569
 Red. masses --      1.3880                 1.4122                 1.3174
 Frc consts  --      1.5159                 1.5712                 1.4890
 IR Inten    --      0.2543                12.4338                 7.0618

                     43                     44                     45
                      A                      A                      A
 Frequencies --   1397.4939              1404.4216              1413.8143
 Red. masses --      1.4152                 1.4212                 1.3724
 Frc consts  --      1.6284                 1.6516                 1.6163
 IR Inten    --      4.7556                 0.4033                 3.0832

                     46                     47                     48
                      A                      A                      A
 Frequencies --   1418.5836              1434.7539              1504.3226
 Red. masses --      1.3852                 1.2339                 1.0946
 Frc consts  --      1.6424                 1.4965                 1.4594
 IR Inten    --      4.4821                 2.5098                 1.9474

                     49                     50                     51
                      A                      A                      A
 Frequencies --   1515.2872              1517.5623              1520.4559
 Red. masses --      1.0812                 1.0897                 1.0916
 Frc consts  --      1.4626                 1.4786                 1.4869
 IR Inten    --      1.1313                 5.1646                 5.7726

                     52                     53                     54
                      A                      A                      A
 Frequencies --   1526.7431              1531.5262              1534.9174
 Red. masses --      1.0526                 1.0565                 1.0837
 Frc consts  --      1.4456                 1.4600                 1.5043
 IR Inten    --      2.4011                10.7841                 3.9906

                     55                     56                     57
                      A                      A                      A
 Frequencies --   1538.5177              1794.6376              3022.6676
 Red. masses --      1.0810                10.7493                 1.0618
 Frc consts  --      1.5076                20.3978                 5.7158
 IR Inten    --     13.3565               129.1321                21.3007

                     58                     59                     60
                      A                      A                      A
 Frequencies --   3026.6212              3035.6080              3040.6139
 Red. masses --      1.0648                 1.0624                 1.0639
 Frc consts  --      5.7470                 5.7681                 5.7954
 IR Inten    --     15.4145                21.9024                14.3551

                     61                     62                     63
                      A                      A                      A
 Frequencies --   3044.9226              3046.3393              3052.4093
 Red. masses --      1.0553                 1.0494                 1.0884
 Frc consts  --      5.7649                 5.7380                 5.9748
 IR Inten    --     29.5650                16.3619                30.9080

                     64                     65                     66
                      A                      A                      A
 Frequencies --   3055.7517              3058.9725              3069.4653
 Red. masses --      1.0948                 1.0653                 1.0899
 Frc consts  --      6.0234                 5.8734                 6.0501
 IR Inten    --      9.6347                16.2719                56.9121

                     67                     68                     69
                      A                      A                      A
 Frequencies --   3075.2783              3081.6183              3085.8949
 Red. masses --      1.0978                 1.1022                 1.0998
 Frc consts  --      6.1171                 6.1668                 6.1705
 IR Inten    --     41.1483                32.9446                58.6208

                     70                     71                     72
                      A                      A                      A
 Frequencies --   3106.6171              3112.6033              3125.7784
 Red. masses --      1.1044                 1.1018                 1.1028
 Frc consts  --      6.2796                 6.2892                 6.3483
 IR Inten    --     32.8146                39.2659                24.1814

 - Thermochemistry -
 -------------------
 Temperature   298.150 Kelvin.  Pressure   1.00000 Atm.
 Atom     1 has atomic number  8 and mass  15.99491

 Molecular mass:   140.12012 amu.
 Principal axes and moments of inertia in atomic units:
                           1         2         3
     Eigenvalues --  1094.358341481.315492000.48580
           X            0.99889  -0.04327   0.01881
           Y            0.04249   0.99829   0.04014
           Z           -0.02052  -0.03929   0.99902
 This molecule is an asymmetric top.
 Rotational symmetry number  1.
 Warning -- assumption of classical behavior for rotation
           may cause significant error
 Rotational temperatures (Kelvin)      0.07915     0.05847     0.04330
 Rotational constants (GHZ):           1.64913     1.21834     0.90215
 Zero-point vibrational energy     625640.1 (Joules/Mol)
                                  149.53158 (Kcal/Mol)
 Warning -- explicit consideration of  14 degrees of freedom as
           vibrations may cause significant error
 Vibrational temperatures:    109.62   184.22   273.11   302.94   319.67
          (Kelvin)            342.89   353.06   393.58   496.26   540.80
                              659.03   713.67   722.57   753.38   985.67
                             1049.08  1101.13  1152.29  1215.54  1265.20
                             1282.16  1329.58  1373.11  1412.79  1453.02
                             1477.53  1538.98  1547.41  1560.53  1613.67
                             1639.14  1684.70  1738.33  1780.67  1802.05
                             1838.67  1876.68  1900.23  1932.81  1958.84
                             1977.12  1992.79  2010.68  2020.65  2034.16
                             2041.03  2064.29  2164.38  2180.16  2183.43
                             2187.60  2196.64  2203.52  2208.40  2213.58
                             2582.08  4348.94  4354.63  4367.56  4374.77
                             4380.96  4383.00  4391.74  4396.55  4401.18
                             4416.28  4424.64  4433.76  4439.91  4469.73
                             4478.34  4497.30

 Zero-point correction=                           0.238294 (Hartree/Particle)
 Thermal correction to Energy=                    0.248401
 Thermal correction to Enthalpy=                  0.249346
 Thermal correction to Gibbs Free Energy=         0.203550
 Sum of electronic and zero-point Energies=           -427.584298
 Sum of electronic and thermal Energies=              -427.574191
 Sum of electronic and thermal Enthalpies=            -427.573246
 Sum of electronic and thermal Free Energies=         -427.619042

                     E (Thermal)             CV                S
                      KCal/Mol        Cal/Mol-Kelvin    Cal/Mol-Kelvin
 Total                  155.874             39.582             96.384
 Electronic               0.000              0.000              0.000
 Translational            0.889              2.981             40.724
 Rotational               0.889              2.981             29.563
 Vibrational            154.097             33.620             26.098
 Vibration     1          0.599              1.965              3.987
 Vibration     2          0.611              1.925              2.975
 Vibration     3          0.633              1.854              2.230
 Vibration     4          0.643              1.825              2.039
 Vibration     5          0.648              1.807              1.941
 Vibration     6          0.656              1.782              1.815
 Vibration     7          0.660              1.770              1.763
 Vibration     8          0.676              1.722              1.574
 Vibration     9          0.723              1.586              1.189
 Vibration    10          0.747              1.522              1.056
 Vibration    11          0.816              1.343              0.772
 Vibration    12          0.852              1.259              0.668
 Vibration    13          0.858              1.245              0.653
 Vibration    14          0.879              1.198              0.602

 Normal termination of Gaussian 16 at Wed Feb 21 19:50:00 2024.
