 Gaussian 16, Revision A.03,
 Gaussian 16:  EM64M-G16RevA.03 25-Dec-2016

 ---------------------
 # freq b3lyp/6-31g(d)
 ---------------------

 ---------
 good luck
 ---------
 Symbolic Z-matrix:
 Charge =  0 Multiplicity = 1

                         Standard orientation:
 ---------------------------------------------------------------------
 Center     Atomic      Atomic             Coordinates (Angstroms)
 Number     Number       Type             X           Y           Z
 ---------------------------------------------------------------------
      1          8           0        1.171786   -1.141206    1.449655
      2          6           0        0.712346   -0.927188    0.340713
      3          6           0        1.279516    0.205416   -0.527328
      4          6           0        2.816075    0.143162   -0.512118
      5          6           0        0.787953    1.577867   -0.001571
      6          6           0       -0.719538    1.878378   -0.104800
      7          6           0       -1.645103    0.972383    0.745922
      8          6           0       -2.398261   -0.131088   -0.024134
      9          6           0       -1.554328   -1.043335   -0.928897
     10          6           0       -0.409959   -1.791707   -0.223270
     11          1           0        0.928825    0.083424   -1.560207
     12          1           0        3.240373    0.959393   -1.107284
     13          1           0        3.181559   -0.803521   -0.926245
     14          1           0        3.187096    0.224007    0.513540
     15          1           0        1.100769    1.662295    1.048111
     16          1           0        1.334157    2.355049   -0.552875
     17          1           0       -1.031321    1.851642   -1.158880
     18          1           0       -0.855551    2.919870    0.212511
     19          1           0       -1.066795    0.527257    1.564952
     20          1           0       -2.404414    1.595048    1.235627
     21          1           0       -3.168205    0.339819   -0.651520
     22          1           0       -2.938693   -0.751756    0.704251
     23          1           0       -1.151903   -0.461363   -1.767290
     24          1           0       -2.218343   -1.789638   -1.383370
     25          1           0        0.061486   -2.470601   -0.951787
     26          1           0       -0.785526   -2.414600    0.596128
 ---------------------------------------------------------------------

 SCF Done:  E(RB3LYP) =  -427.823378353     A.U. after   13 cycles

 The electronic state is 1-A.
 Alpha  occ. eigenvalues --  -19.12980 -10.26575 -10.19353 -10.19054 -10.18934
 Alpha  occ. eigenvalues --  -10.18622 -10.18405 -10.18357 -10.18031 -10.17504
 Alpha  occ. eigenvalues --   -1.02986  -0.82272  -0.78881  -0.76536  -0.71017
 Alpha  occ. eigenvalues --   -0.66455  -0.63870  -0.59130  -0.56219  -0.51262
 Alpha  occ. eigenvalues --   -0.48133  -0.46973  -0.45288  -0.44439  -0.42503
 Alpha  occ. eigenvalues --   -0.41995  -0.40877  -0.39454  -0.39018  -0.36885
 Alpha  occ. eigenvalues --   -0.36083  -0.35733  -0.34370  -0.33601  -0.33310
 Alpha  occ. eigenvalues --   -0.31888  -0.31255  -0.30244  -0.23389
 Alpha virt. eigenvalues --   -0.01067   0.07938   0.10067   0.10722   0.11427
 Alpha virt. eigenvalues --    0.13653   0.14083   0.15081   0.15501   0.15905
 Alpha virt. eigenvalues --    0.17112   0.17569   0.18520   0.18841   0.20056

 Mulliken charges:
               1
     1  O   -0.468882
     2  C    0.464281
     3  C   -0.150220
     4  C   -0.448218
     5  C   -0.267465
     6  C   -0.266654
     7  C   -0.282370
     8  C   -0.256496
     9  C   -0.273730
    10  C   -0.347497
    11  H    0.123602
    12  H    0.139861
    13  H    0.142992
    14  H    0.172024
    15  H    0.153102
    16  H    0.133483
    17  H    0.131319
    18  H    0.137719
    19  H    0.159089
    20  H    0.136951
    21  H    0.132820
    22  H    0.134940
    23  H    0.139592
    24  H    0.141193
    25  H    0.157617
    26  H    0.160947
 Sum of Mulliken charges =  -0.00000

 Dipole moment (field-independent basis, Debye):
    X=             -1.2170    Y=              0.7238    Z=             -2.2763  Tot=              2.6808
 Quadrupole moment (field-independent basis, Debye-Ang):
   XX=            -63.1750   YY=            -61.9089   ZZ=            -66.1126
   XY=              1.9410   XZ=             -3.2110   YZ=              3.3606

  Exact polarizability: 100.868   1.962  93.229   0.497   0.124  83.670
 Approx polarizability: 127.067   1.107 126.440   6.223  -4.082 137.490

                      1                      2                      3
                      A                      A                      A
 Frequencies --     95.7476               110.6785               187.0781
 Red. masses --      3.3834                 3.8200                 2.1593
 Frc consts  --      0.0183                 0.0276                 0.0445
 IR Inten    --      2.3830                 2.4178                 0.1188

                      4                      5                      6
                      A                      A                      A
 Frequencies --    215.1211               236.3648               241.1906
 Red. masses --      1.4754                 1.7840                 2.4575
 Frc consts  --      0.0402                 0.0587                 0.0842
 IR Inten    --      0.6278                 0.5498                 0.3633

                      7                      8                      9
                      A                      A                      A
 Frequencies --    258.8829               280.2478               327.5711
 Red. masses --      2.4555                 2.8342                 2.0303
 Frc consts  --      0.0970                 0.1311                 0.1284
 IR Inten    --      0.9608                 2.1492                 1.6995

                     10                     11                     12
                      A                      A                      A
 Frequencies --    359.1355               433.6268               478.2915
 Red. masses --      2.1645                 2.4509                 2.1008
 Frc consts  --      0.1645                 0.2715                 0.2832
 IR Inten    --      1.8040                 3.1973                 1.5169

                     13                     14                     15
                      A                      A                      A
 Frequencies --    513.8472               565.7471               661.3408
 Red. masses --      2.2042                 3.8467                 2.2997
 Frc consts  --      0.3429                 0.7254                 0.5926
 IR Inten    --      0.6567                 5.2556                 1.2957

                     16                     17                     18
                      A                      A                      A
 Frequencies --    720.4886               755.8182               791.9716
 Red. masses --      2.6578                 1.7637                 1.9030
 Frc consts  --      0.8129                 0.5936                 0.7032
 IR Inten    --      0.7302                 1.4944                 3.4192

                     19                     20                     21
                      A                      A                      A
 Frequencies --    825.3324               874.6096               914.0343
 Red. masses --      2.3616                 1.7973                 1.8602
 Frc consts  --      0.9478                 0.8100                 0.9157
 IR Inten    --      1.9359                 8.8458                 2.8560

                     22                     23                     24
                      A                      A                      A
 Frequencies --    933.8949               955.8975               979.5569
 Red. masses --      1.7548                 1.6323                 2.1865
 Frc consts  --      0.9017                 0.8787                 1.2361
 IR Inten    --      2.4291                 4.0389                 8.7557

                     25                     26                     27
                      A                      A                      A
 Frequencies --   1013.7084              1025.8799              1070.7120
 Red. masses --      2.1534                 1.7448                 1.8530
 Frc consts  --      1.3038                 1.0819                 1.2516
 IR Inten    --      0.0307                 7.1392                 9.0464

                     28                     29                     30
                      A                      A                      A
 Frequencies --   1093.3666              1112.8468              1121.3010
 Red. masses --      2.9192                 1.9704                 1.3525
 Frc consts  --      2.0561                 1.4377                 1.0019
 IR Inten    --      1.5401                 1.8429                 4.3852

                     31                     32                     33
                      A                      A                      A
 Frequencies --   1125.2229              1163.3125              1193.7729
 Red. masses --      2.0285                 2.2123                 1.4010
 Frc consts  --      1.5132                 1.7640                 1.1764
 IR Inten    --     10.0082                 0.5455                25.2295

                     34                     35                     36
                      A                      A                      A
 Frequencies --   1229.5193              1247.3250              1280.7803
 Red. masses --      1.4596                 1.3866                 1.2232
 Frc consts  --      1.3000                 1.2711                 1.1822
 IR Inten    --     15.9938                 2.1493                 3.2420

                     37                     38                     39
                      A                      A                      A
 Frequencies --   1294.6142              1327.2682              1345.0569
 Red. masses --      1.2373                 1.1819                 1.2358
 Frc consts  --      1.2218                 1.2267                 1.3173
 IR Inten    --      3.4276                 1.4608                 0.6208

                     40                     41                     42
                      A                      A                      A
 Frequencies --   1368.0073              1380.6769              1386.8439
 Red. masses --      1.3627                 1.3292                 1.3577
 Frc consts  --      1.5025                 1.4929                 1.5385
 IR Inten    --      0.9385                 1.2313                 7.5432

                     43                     44                     45
                      A                      A                      A
 Frequencies --   1402.2026              1412.6050              1413.0554
 Red. masses --      1.4847                 1.4551                 1.3694
 Frc consts  --      1.7200                 1.7107                 1.6110
 IR Inten    --      4.7227                10.7573                 4.6191

                     46                     47                     48
                      A                      A                      A
 Frequencies --   1421.6641              1433.9988              1487.5619
 Red. masses --      1.4071                 1.2419                 1.0875
 Frc consts  --      1.6756                 1.5046                 1.4178
 IR Inten    --      0.5094                 6.7668                 6.9749

                     49                     50                     51
                      A                      A                      A
 Frequencies --   1512.4999              1515.2116              1519.5799
 Red. masses --      1.0809                 1.0790                 1.0873
 Frc consts  --      1.4569                 1.4595                 1.4792
 IR Inten    --      2.6610                 0.3508                 2.9181

                     52                     53                     54
                      A                      A                      A
 Frequencies --   1524.2029              1533.1946              1533.8391
 Red. masses --      1.0513                 1.0846                 1.0561
 Frc consts  --      1.4390                 1.5022                 1.4640
 IR Inten    --      7.6993                 7.5021                 7.7533

                     55                     56                     57
                      A                      A                      A
 Frequencies --   1539.0703              1795.1911              3014.5111
 Red. masses --      1.0832                10.4592                 1.0681
 Frc consts  --      1.5118                19.8596                 5.7186
 IR Inten    --      9.0172               115.7284                13.4545

                     58                     59                     60
                      A                      A                      A
 Frequencies --   3024.0498              3027.5774              3032.1096
 Red. masses --      1.0616                 1.0636                 1.0628
 Frc consts  --      5.7198                 5.7440                 5.7567
 IR Inten    --     27.2207                17.8295                16.7747

                     61                     62                     63
                      A                      A                      A
 Frequencies --   3041.8786              3045.6500              3051.2292
 Red. masses --      1.0720                 1.0747                 1.0696
 Frc consts  --      5.8440                 5.8734                 5.8673
 IR Inten    --     14.5333                10.5327                54.6544

                     64                     65                     66
                      A                      A                      A
 Frequencies --   3053.9705              3057.6128              3068.6915
 Red. masses --      1.0441                 1.0923                 1.0924
 Frc consts  --      5.7376                 6.0169                 6.0611
 IR Inten    --     19.5885                33.1399                44.1046

                     67                     68                     69
                      A                      A                      A
 Frequencies --   3075.8104              3079.9091              3086.0829
 Red. masses --      1.1032                 1.1003                 1.0995
 Frc consts  --      6.1492                 6.1495                 6.1697
 IR Inten    --     29.1076                37.6010                55.3642

                     70                     71                     72
                      A                      A                      A
 Frequencies --   3101.1036              3115.2325              3142.3660
 Red. masses --      1.0945                 1.1027                 1.1015
 Frc consts  --      6.2017                 6.3051                 6.4083
 IR Inten    --     43.9155                30.9940                18.3590

 - Thermochemistry -
 -------------------
 Temperature   298.150 Kelvin.  Pressure   1.00000 Atm.
 Atom     1 has atomic number  8 and mass  15.99491

 Molecular mass:   140.12012 amu.
 Principal axes and moments of inertia in atomic units:
                           1         2         3
     Eigenvalues --  1021.392731558.622902024.31660
           X            0.99932   0.03287  -0.01672
           Y           -0.03227   0.99886   0.03519
           Z            0.01785  -0.03462   0.99924
 This molecule is an asymmetric top.
 Rotational symmetry number  1.
 Warning -- assumption of classical behavior for rotation
           may cause significant error
 Rotational temperatures (Kelvin)      0.08480     0.05557     0.04279
 Rotational constants (GHZ):           1.76694     1.15791     0.89153
 Zero-point vibrational energy     625397.8 (Joules/Mol)
                                  149.47367 (Kcal/Mol)
 Warning -- explicit consideration of  14 degrees of freedom as
           vibrations may cause significant error
 Vibrational temperatures:    137.76   159.24   269.16   309.51   340.08
          (Kelvin)            347.02   372.47   403.21   471.30   516.72
                              623.89   688.15   739.31   813.98   951.52
                             1036.62  1087.45  1139.47  1187.47  1258.37
                             1315.09  1343.67  1375.32  1409.36  1458.50
                             1476.01  1540.52  1573.11  1601.14  1613.30
                             1618.94  1673.75  1717.57  1769.00  1794.62
                             1842.76  1862.66  1909.64  1935.24  1968.26
                             1986.49  1995.36  2017.46  2032.42  2033.07
                             2045.46  2063.20  2140.27  2176.15  2180.05
                             2186.34  2192.99  2205.93  2206.85  2214.38
                             2582.88  4337.21  4350.93  4356.01  4362.53
                             4376.58  4382.01  4390.04  4393.98  4399.22
                             4415.16  4425.41  4431.30  4440.18  4461.80
                             4482.12  4521.16

 Zero-point correction=                           0.238201 (Hartree/Particle)
 Thermal correction to Energy=                    0.248301
 Thermal correction to Enthalpy=                  0.249245
 Thermal correction to Gibbs Free Energy=         0.203566
 Sum of electronic and zero-point Energies=           -427.585177
 Sum of electronic and thermal Energies=              -427.575078
 Sum of electronic and thermal Enthalpies=            -427.574133
 Sum of electronic and thermal Free Energies=         -427.619813

                     E (Thermal)             CV                S
                      KCal/Mol        Cal/Mol-Kelvin    Cal/Mol-Kelvin
 Total                  155.811             39.638             96.140
 Electronic               0.000              0.000              0.000
 Translational            0.889              2.981             40.724
 Rotational               0.889              2.981             29.556
 Vibrational            154.034             33.676             25.860
 Vibration     1          0.603              1.952              3.539
 Vibration     2          0.607              1.941              3.257
 Vibration     3          0.632              1.858              2.257
 Vibration     4          0.645              1.818              2.000
 Vibration     5          0.655              1.785              1.830
 Vibration     6          0.658              1.777              1.794
 Vibration     7          0.668              1.748              1.669
 Vibration     8          0.680              1.710              1.532
 Vibration     9          0.711              1.620              1.272
 Vibration    10          0.734              1.556              1.126
 Vibration    11          0.794              1.397              0.847
 Vibration    12          0.835              1.298              0.715
 Vibration    13          0.869              1.219              0.624
 Vibration    14          0.922              1.105              0.512

 Normal termination of Gaussian 16 at Wed Feb 21 19:47:41 2024.
