 Gaussian 16, Revision A.03,
 Gaussian 16:  EM64M-G16RevA.03 25-Dec-2016

 ---------------------
 # freq b3lyp/6-31g(d)
 ---------------------

 ---------
 good luck
 ---------
 Symbolic Z-matrix:
 Charge =  0 Multiplicity = 1

                         Standard orientation:
 ---------------------------------------------------------------------
 Center     Atomic      Atomic             Coordinates (Angstroms)
 Number     Number       Type             X           Y           Z
 ---------------------------------------------------------------------
      1          6           0        2.740645    0.569327    0.153023
      2          6           0        1.250333    0.231014    0.322780
      3          6           0        0.793306    0.787566    1.676495
      4          6           0        0.435552    0.543525   -0.992440
      5          6           0        0.851739   -0.864481   -1.503223
      6          6           0        0.948051   -1.275066   -0.010098
      7          6           0       -0.451992   -1.674787    0.474022
      8          6           0       -1.508506   -0.601134    0.164522
      9          6           0       -1.093049    0.543882   -0.782850
     10          6           0       -1.707616    1.887874   -0.366845
     11          8           0       -2.624209   -0.661236    0.644460
     12          1           0        2.891762    1.655847    0.174593
     13          1           0        3.163158    0.197082   -0.784932
     14          1           0        3.327321    0.138017    0.973880
     15          1           0        1.377900    0.330182    2.485449
     16          1           0       -0.261793    0.609780    1.901241
     17          1           0        0.961348    1.870370    1.727268
     18          1           0        0.750977    1.417255   -1.575801
     19          1           0        1.814119   -0.875087   -2.018916
     20          1           0        0.121562   -1.402465   -2.120411
     21          1           0        1.701934   -2.017210    0.278729
     22          1           0       -0.773031   -2.607129   -0.012146
     23          1           0       -0.488628   -1.866705    1.552938
     24          1           0       -1.546365    0.274154   -1.751611
     25          1           0       -1.555028    2.634288   -1.154271
     26          1           0       -2.781397    1.770667   -0.198069
     27          1           0       -1.260955    2.274533    0.554065
 ---------------------------------------------------------------------

 SCF Done:  E(RB3LYP) =  -465.898970524     A.U. after   13 cycles

 The electronic state is 1-A.
 Alpha  occ. eigenvalues --  -19.13247 -10.27018 -10.20072 -10.19622 -10.19392
 Alpha  occ. eigenvalues --  -10.19286 -10.19021 -10.18399 -10.17783 -10.17685
 Alpha  occ. eigenvalues --  -10.17450  -1.03301  -0.87903  -0.77650  -0.75719
 Alpha  occ. eigenvalues --   -0.73040  -0.68226  -0.66159  -0.61248  -0.59875
 Alpha  occ. eigenvalues --   -0.54988  -0.49424  -0.47968  -0.45976  -0.45878
 Alpha  occ. eigenvalues --   -0.45201  -0.42658  -0.41782  -0.40935  -0.40357
 Alpha  occ. eigenvalues --   -0.39026  -0.38029  -0.37622  -0.37447  -0.36036
 Alpha  occ. eigenvalues --   -0.35755  -0.33774  -0.31068  -0.30650  -0.29495
 Alpha  occ. eigenvalues --   -0.28872  -0.23318
 Alpha virt. eigenvalues --   -0.01459   0.07628   0.10741   0.10890   0.11215
 Alpha virt. eigenvalues --    0.12581   0.13351   0.13755   0.15302   0.16041
 Alpha virt. eigenvalues --    0.16700   0.17252   0.17527   0.18352   0.18995

 Mulliken charges:
               1
     1  C   -0.464765
     2  C    0.123540
     3  C   -0.482487
     4  C   -0.122522
     5  C   -0.295655
     6  C   -0.114676
     7  C   -0.349036
     8  C    0.432266
     9  C   -0.155931
    10  C   -0.456430
    11  O   -0.463727
    12  H    0.143605
    13  H    0.144547
    14  H    0.142694
    15  H    0.143932
    16  H    0.158943
    17  H    0.146738
    18  H    0.116008
    19  H    0.144962
    20  H    0.129076
    21  H    0.117903
    22  H    0.167541
    23  H    0.169974
    24  H    0.157226
    25  H    0.140545
    26  H    0.173046
    27  H    0.152683
 Sum of Mulliken charges =  -0.00000

 Dipole moment (field-independent basis, Debye):
    X=              2.5907    Y=              0.2034    Z=             -1.0012  Tot=              2.7849
 Quadrupole moment (field-independent basis, Debye-Ang):
   XX=            -76.5767   YY=            -66.4441   ZZ=            -67.2903
   XY=             -2.0526   XZ=              3.5681   YZ=              0.3693

  Exact polarizability: 107.571  -0.722  97.750  -0.132  -0.844  92.798
 Approx polarizability: 150.178   0.787 138.995  -4.034  -2.049 138.759

                      1                      2                      3
                      A                      A                      A
 Frequencies --     80.1280               173.1278               192.2122
 Red. masses --      4.9980                 2.2571                 1.2079
 Frc consts  --      0.0189                 0.0399                 0.0263
 IR Inten    --      4.0597                 0.0170                 0.2870

                      4                      5                      6
                      A                      A                      A
 Frequencies --    196.8482               209.4022               248.5854
 Red. masses --      2.1677                 1.0245                 1.6665
 Frc consts  --      0.0495                 0.0265                 0.0607
 IR Inten    --      0.0096                 0.0219                 0.7829

                      7                      8                      9
                      A                      A                      A
 Frequencies --    278.1946               293.6827               354.2266
 Red. masses --      2.4883                 1.5855                 2.3707
 Frc consts  --      0.1135                 0.0806                 0.1753
 IR Inten    --      3.0793                 0.5647                 0.1626

                     10                     11                     12
                      A                      A                      A
 Frequencies --    372.3483               393.9809               407.5410
 Red. masses --      3.1796                 2.7151                 2.5475
 Frc consts  --      0.2597                 0.2483                 0.2493
 IR Inten    --      1.2106                 2.9176                 0.4257

                     13                     14                     15
                      A                      A                      A
 Frequencies --    446.3768               487.6588               540.7041
 Red. masses --      2.5744                 3.2908                 4.0565
 Frc consts  --      0.3022                 0.4611                 0.6988
 IR Inten    --      5.5411                 2.2776                 0.2755

                     16                     17                     18
                      A                      A                      A
 Frequencies --    576.2524               626.2631               659.5522
 Red. masses --      3.3414                 3.1836                 2.9792
 Frc consts  --      0.6537                 0.7357                 0.7636
 IR Inten    --      1.3868                 0.9883                 0.7509

                     19                     20                     21
                      A                      A                      A
 Frequencies --    700.2453               828.0490               850.3162
 Red. masses --      2.9824                 2.4110                 1.9931
 Frc consts  --      0.8616                 0.9740                 0.8491
 IR Inten    --      1.9251                 0.8689                 0.4311

                     22                     23                     24
                      A                      A                      A
 Frequencies --    870.4316               890.7252               928.1255
 Red. masses --      2.2370                 2.1472                 2.1118
 Frc consts  --      0.9986                 1.0037                 1.0718
 IR Inten    --      3.0688                 2.3847                 3.2620

                     25                     26                     27
                      A                      A                      A
 Frequencies --    956.4883               965.5072               980.7723
 Red. masses --      2.0072                 1.4420                 1.8743
 Frc consts  --      1.0819                 0.7920                 1.0623
 IR Inten    --      1.2046                 0.9718                 3.5169

                     28                     29                     30
                      A                      A                      A
 Frequencies --   1018.7219              1027.5767              1042.9475
 Red. masses --      1.7900                 1.3855                 1.6056
 Frc consts  --      1.0945                 0.8620                 1.0290
 IR Inten    --      7.0431                 3.9580                 1.9246

                     31                     32                     33
                      A                      A                      A
 Frequencies --   1056.9113              1070.2558              1115.1567
 Red. masses --      1.4852                 1.5253                 1.3183
 Frc consts  --      0.9775                 1.0294                 0.9659
 IR Inten    --      1.9269                16.3385                14.0315

                     34                     35                     36
                      A                      A                      A
 Frequencies --   1126.1010              1157.6907              1185.3872
 Red. masses --      2.1248                 1.8125                 2.1121
 Frc consts  --      1.5876                 1.4312                 1.7485
 IR Inten    --      3.6451                 5.3994                 3.3121

                     37                     38                     39
                      A                      A                      A
 Frequencies --   1210.5688              1219.0108              1238.5735
 Red. masses --      1.9925                 1.6840                 1.6931
 Frc consts  --      1.7204                 1.4744                 1.5303
 IR Inten    --     17.4643                 0.3730                 1.1094

                     40                     41                     42
                      A                      A                      A
 Frequencies --   1248.9274              1265.1552              1301.6722
 Red. masses --      2.2537                 1.6921                 1.7095
 Frc consts  --      2.0712                 1.5958                 1.7066
 IR Inten    --      3.4447                 1.9839                 1.3539

                     43                     44                     45
                      A                      A                      A
 Frequencies --   1313.5612              1327.1938              1348.7931
 Red. masses --      1.5472                 2.0594                 1.4687
 Frc consts  --      1.5729                 2.1372                 1.5743
 IR Inten    --      1.8283                 1.4153                 2.4495

                     46                     47                     48
                      A                      A                      A
 Frequencies --   1365.0166              1379.8945              1429.3738
 Red. masses --      1.6733                 1.5832                 1.2206
 Frc consts  --      1.8370                 1.7762                 1.4693
 IR Inten    --     15.1985                 0.2554                 6.2048

                     49                     50                     51
                      A                      A                      A
 Frequencies --   1434.4997              1453.5722              1483.9768
 Red. masses --      1.2425                 1.2106                 1.0802
 Frc consts  --      1.5064                 1.5071                 1.4016
 IR Inten    --      5.3866                 4.3054                 6.9997

                     52                     53                     54
                      A                      A                      A
 Frequencies --   1516.1079              1517.7078              1526.8179
 Red. masses --      1.0450                 1.0597                 1.0474
 Frc consts  --      1.4152                 1.4381                 1.4386
 IR Inten    --      0.7869                 2.6267                 2.2445

                     55                     56                     57
                      A                      A                      A
 Frequencies --   1531.5745              1536.8316              1544.1599
 Red. masses --      1.0651                 1.0628                 1.0532
 Frc consts  --      1.4720                 1.4789                 1.4796
 IR Inten    --      4.0027                 2.4944                 7.3563

                     58                     59                     60
                      A                      A                      A
 Frequencies --   1546.4342              1808.9235              2988.5553
 Red. masses --      1.0729                12.4399                 1.0815
 Frc consts  --      1.5118                23.9832                 5.6910
 IR Inten    --      6.6048               157.1712                15.4086

                     61                     62                     63
                      A                      A                      A
 Frequencies --   3038.9900              3040.0932              3044.5498
 Red. masses --      1.0439                 1.0609                 1.0402
 Frc consts  --      5.6804                 5.7767                 5.6809
 IR Inten    --      6.3845                24.6128                40.8740

                     64                     65                     66
                      A                      A                      A
 Frequencies --   3056.7784              3060.5862              3063.9899
 Red. masses --      1.0718                 1.0703                 1.0527
 Frc consts  --      5.9005                 5.9069                 5.8225
 IR Inten    --     23.5422                29.4763                81.7323

                     67                     68                     69
                      A                      A                      A
 Frequencies --   3068.6792              3089.6057              3094.1127
 Red. masses --      1.0824                 1.0964                 1.1013
 Frc consts  --      6.0054                 6.1664                 6.2122
 IR Inten    --     19.5133                13.6455                 2.6654

                     70                     71                     72
                      A                      A                      A
 Frequencies --   3100.9237              3121.7844              3128.5157
 Red. masses --      1.1011                 1.1007                 1.1004
 Frc consts  --      6.2383                 6.3202                 6.3455
 IR Inten    --     57.0358                19.7662                25.1661

                     73                     74                     75
                      A                      A                      A
 Frequencies --   3133.5377              3138.3831              3149.3016
 Red. masses --      1.0971                 1.0964                 1.1023
 Frc consts  --      6.3468                 6.3628                 6.4414
 IR Inten    --     28.9907                47.5051                11.9058

 - Thermochemistry -
 -------------------
 Temperature   298.150 Kelvin.  Pressure   1.00000 Atm.
 Atom     1 has atomic number  6 and mass  12.00000

 Molecular mass:   152.12012 amu.
 Principal axes and moments of inertia in atomic units:
                           1         2         3
     Eigenvalues --  1079.224731811.966021994.19941
           X            0.99949  -0.02658   0.01793
           Y            0.02593   0.99902   0.03587
           Z           -0.01886  -0.03539   0.99920
 This molecule is an asymmetric top.
 Rotational symmetry number  1.
 Warning -- assumption of classical behavior for rotation
           may cause significant error
 Rotational temperatures (Kelvin)      0.08026     0.04780     0.04343
 Rotational constants (GHZ):           1.67226     0.99601     0.90500
 Zero-point vibrational energy     635068.9 (Joules/Mol)
                                  151.78511 (Kcal/Mol)
 Warning -- explicit consideration of  16 degrees of freedom as
           vibrations may cause significant error
 Vibrational temperatures:    115.29   249.09   276.55   283.22   301.28
          (Kelvin)            357.66   400.26   422.54   509.65   535.73
                              566.85   586.36   642.24   701.63   777.95
                              829.10   901.05   948.95  1007.50  1191.38
                             1223.42  1252.36  1281.55  1335.37  1376.17
                             1389.15  1411.11  1465.71  1478.45  1500.57
                             1520.66  1539.86  1604.46  1620.21  1665.66
                             1705.51  1741.74  1753.88  1782.03  1796.93
                             1820.28  1872.82  1889.92  1909.54  1940.61
                             1963.95  1985.36  2056.55  2063.93  2091.37
                             2135.11  2181.34  2183.64  2196.75  2203.59
                             2211.16  2221.70  2224.97  2602.64  4299.86
                             4372.43  4374.02  4380.43  4398.02  4403.50
                             4408.40  4415.14  4445.25  4451.74  4461.54
                             4491.55  4501.24  4508.46  4515.43  4531.14

 Zero-point correction=                           0.241885 (Hartree/Particle)
 Thermal correction to Energy=                    0.252565
 Thermal correction to Enthalpy=                  0.253510
 Thermal correction to Gibbs Free Energy=         0.206911
 Sum of electronic and zero-point Energies=           -465.657086
 Sum of electronic and thermal Energies=              -465.646405
 Sum of electronic and thermal Enthalpies=            -465.645461
 Sum of electronic and thermal Free Energies=         -465.692060

                     E (Thermal)             CV                S
                      KCal/Mol        Cal/Mol-Kelvin    Cal/Mol-Kelvin
 Total                  158.487             43.244             98.076
 Electronic               0.000              0.000              0.000
 Translational            0.889              2.981             40.968
 Rotational               0.889              2.981             29.746
 Vibrational            156.710             37.283             27.361
 Vibration     1          0.600              1.963              3.888
 Vibration     2          0.627              1.876              2.401
 Vibration     3          0.634              1.851              2.206
 Vibration     4          0.636              1.844              2.162
 Vibration     5          0.642              1.826              2.049
 Vibration     6          0.662              1.765              1.741
 Vibration     7          0.679              1.714              1.545
 Vibration     8          0.688              1.686              1.453
 Vibration     9          0.730              1.567              1.147
 Vibration    10          0.744              1.529              1.070
 Vibration    11          0.761              1.483              0.985
 Vibration    12          0.772              1.454              0.935
 Vibration    13          0.806              1.369              0.807
 Vibration    14          0.844              1.277              0.690
 Vibration    15          0.896              1.160              0.564
 Vibration    16          0.933              1.083              0.492

 Normal termination of Gaussian 16 at Thu Feb 22 10:27:54 2024.
