 Gaussian 16, Revision A.03,
 Gaussian 16:  EM64M-G16RevA.03 25-Dec-2016

 ---------------------
 # freq b3lyp/6-31g(d)
 ---------------------

 ---------
 good luck
 ---------
 Symbolic Z-matrix:
 Charge =  0 Multiplicity = 1

                         Standard orientation:
 ---------------------------------------------------------------------
 Center     Atomic      Atomic             Coordinates (Angstroms)
 Number     Number       Type             X           Y           Z
 ---------------------------------------------------------------------
      1          8           0       -1.105407    2.587312   -0.255747
      2          6           0       -1.100117    1.412618    0.062978
      3          6           0       -2.382983    0.604277    0.213933
      4          6           0       -2.323435   -0.705486   -0.597736
      5          6           0       -1.051209   -1.491345   -0.298978
      6          9           0       -1.098201   -1.899029    1.049909
      7          6           0        0.220527   -0.667914   -0.512726
      8          6           0        1.498618   -1.471922   -0.217409
      9          6           0        2.765424   -0.626659   -0.415439
     10          6           0        2.719955    0.663382    0.417217
     11          6           0        1.452048    1.478485    0.125987
     12          6           0        0.187558    0.636793    0.333648
     13          1           0       -3.230820    1.227194   -0.083368
     14          1           0       -2.501251    0.349742    1.275854
     15          1           0       -2.349323   -0.483848   -1.672685
     16          1           0       -3.197396   -1.328485   -0.376799
     17          1           0       -1.013876   -2.409532   -0.899904
     18          1           0        0.231762   -0.381764   -1.577014
     19          1           0        1.530192   -2.360670   -0.862459
     20          1           0        1.449291   -1.835956    0.817136
     21          1           0        2.864461   -0.366658   -1.479770
     22          1           0        3.652396   -1.217847   -0.155480
     23          1           0        3.610739    1.272684    0.219824
     24          1           0        2.749745    0.404785    1.486073
     25          1           0        1.470683    1.844146   -0.909565
     26          1           0        1.406927    2.370825    0.759594
     27          1           0        0.135222    0.314770    1.386510
 ---------------------------------------------------------------------

 SCF Done:  E(RB3LYP) =  -565.179699861     A.U. after   14 cycles

 The electronic state is 1-A.
 Alpha  occ. eigenvalues --  -24.67549 -19.13617 -10.26957 -10.26669 -10.20285
 Alpha  occ. eigenvalues --  -10.20158 -10.19504 -10.19362 -10.18619 -10.18350
 Alpha  occ. eigenvalues --  -10.18105 -10.17878  -1.17871  -1.03466  -0.85179
 Alpha  occ. eigenvalues --   -0.80681  -0.75774  -0.74823  -0.70983  -0.62930
 Alpha  occ. eigenvalues --   -0.62408  -0.58723  -0.56172  -0.53331  -0.50075
 Alpha  occ. eigenvalues --   -0.48414  -0.47705  -0.46571  -0.45009  -0.43957
 Alpha  occ. eigenvalues --   -0.43530  -0.41693  -0.40953  -0.39325  -0.38631
 Alpha  occ. eigenvalues --   -0.37527  -0.37048  -0.35778  -0.34765  -0.34398
 Alpha  occ. eigenvalues --   -0.34337  -0.32825  -0.32215  -0.30535  -0.29813
 Alpha  occ. eigenvalues --   -0.23706
 Alpha virt. eigenvalues --   -0.01365   0.07853   0.09295   0.09963   0.11517
 Alpha virt. eigenvalues --    0.12438   0.13606   0.14328   0.15346   0.15768
 Alpha virt. eigenvalues --    0.16725   0.17497   0.17795   0.18147   0.18440

 Mulliken charges:
               1
     1  O   -0.450546
     2  C    0.441883
     3  C   -0.347838
     4  C   -0.308148
     5  C    0.215200
     6  F   -0.336603
     7  C   -0.128929
     8  C   -0.267553
     9  C   -0.262144
    10  C   -0.266134
    11  C   -0.255296
    12  C   -0.184550
    13  H    0.164440
    14  H    0.171409
    15  H    0.149257
    16  H    0.157856
    17  H    0.125957
    18  H    0.129321
    19  H    0.130176
    20  H    0.147880
    21  H    0.129840
    22  H    0.135139
    23  H    0.135501
    24  H    0.130279
    25  H    0.140056
    26  H    0.149003
    27  H    0.154549
 Sum of Mulliken charges =  -0.00000

 Dipole moment (field-independent basis, Debye):
    X=              0.3015    Y=             -2.1963    Z=             -0.7369  Tot=              2.3362
 Quadrupole moment (field-independent basis, Debye-Ang):
   XX=            -68.5371   YY=            -82.3009   ZZ=            -70.8883
   XY=              2.7063   XZ=              0.9518   YZ=              4.5227

  Exact polarizability: 112.917  -0.251 104.616   1.065   1.350  83.551
 Approx polarizability: 136.940  -0.438 154.252   0.034  -6.158 137.026

                      1                      2                      3
                      A                      A                      A
 Frequencies --     76.7587               102.0807               141.0188
 Red. masses --      4.9481                 3.5362                 3.1805
 Frc consts  --      0.0172                 0.0217                 0.0373
 IR Inten    --      3.0742                 1.6397                 0.7905

                      4                      5                      6
                      A                      A                      A
 Frequencies --    179.9063               240.1329               272.3095
 Red. masses --      3.9690                 3.5576                 3.7256
 Frc consts  --      0.0757                 0.1209                 0.1628
 IR Inten    --      2.9054                 0.2596                 7.0032

                      7                      8                      9
                      A                      A                      A
 Frequencies --    296.6690               325.7610               361.2142
 Red. masses --      2.1835                 2.7959                 2.2552
 Frc consts  --      0.1132                 0.1748                 0.1734
 IR Inten    --      1.0493                 3.8655                 0.2302

                     10                     11                     12
                      A                      A                      A
 Frequencies --    383.5485               436.2982               458.6946
 Red. masses --      3.6872                 2.8939                 2.8816
 Frc consts  --      0.3196                 0.3246                 0.3572
 IR Inten    --      0.3412                 0.5186                 2.6971

                     13                     14                     15
                      A                      A                      A
 Frequencies --    495.2897               556.1864               579.1791
 Red. masses --      2.0058                 3.1696                 3.1640
 Frc consts  --      0.2899                 0.5777                 0.6253
 IR Inten    --      0.7357                 5.9810                 3.7091

                     16                     17                     18
                      A                      A                      A
 Frequencies --    631.1660               734.9671               789.9279
 Red. masses --      5.0339                 2.6325                 1.9848
 Frc consts  --      1.1815                 0.8378                 0.7297
 IR Inten    --      4.1140                 2.9420                 0.1487

                     19                     20                     21
                      A                      A                      A
 Frequencies --    819.6797               844.0639               860.1376
 Red. masses --      2.0389                 3.1911                 1.8355
 Frc consts  --      0.8071                 1.3395                 0.8001
 IR Inten    --      3.8003                 7.3046                 1.7745

                     22                     23                     24
                      A                      A                      A
 Frequencies --    865.0543               892.1724               912.6116
 Red. masses --      2.6417                 2.1306                 1.6493
 Frc consts  --      1.1647                 0.9992                 0.8093
 IR Inten    --      4.0845                 4.1749                 3.2940

                     25                     26                     27
                      A                      A                      A
 Frequencies --    961.4194               972.5285               994.1399
 Red. masses --      2.2369                 2.2852                 1.8320
 Frc consts  --      1.2182                 1.2735                 1.0668
 IR Inten    --     25.8070                 2.3517                 1.5970

                     28                     29                     30
                      A                      A                      A
 Frequencies --   1026.2768              1058.7594              1064.9993
 Red. masses --      2.3399                 1.5439                 2.3057
 Frc consts  --      1.4520                 1.0197                 1.5408
 IR Inten    --      1.2058                 2.7109                21.6470

                     31                     32                     33
                      A                      A                      A
 Frequencies --   1071.6228              1087.2401              1104.8569
 Red. masses --      1.3370                 1.5082                 2.7976
 Frc consts  --      0.9046                 1.0504                 2.0121
 IR Inten    --      0.3587                 7.3109                 1.3780

                     34                     35                     36
                      A                      A                      A
 Frequencies --   1149.4465              1155.2449              1176.2293
 Red. masses --      2.3587                 2.1333                 2.3805
 Frc consts  --      1.8361                 1.6774                 1.9405
 IR Inten    --     27.9630                 2.4631                41.4927

                     37                     38                     39
                      A                      A                      A
 Frequencies --   1205.2433              1242.4473              1258.2999
 Red. masses --      1.2663                 1.4265                 1.3591
 Frc consts  --      1.0837                 1.2974                 1.2679
 IR Inten    --      3.8966                 8.1030                 2.7593

                     40                     41                     42
                      A                      A                      A
 Frequencies --   1271.4434              1281.1850              1322.2842
 Red. masses --      1.4290                 1.4250                 1.2570
 Frc consts  --      1.3610                 1.3781                 1.2949
 IR Inten    --      1.8592                 5.1657                 0.9041

                     43                     44                     45
                      A                      A                      A
 Frequencies --   1334.3811              1346.1069              1348.8540
 Red. masses --      1.2476                 1.3287                 1.3737
 Frc consts  --      1.3089                 1.4185                 1.4726
 IR Inten    --      4.7830                 1.4371                11.3356

                     46                     47                     48
                      A                      A                      A
 Frequencies --   1364.1968              1382.8357              1389.8722
 Red. masses --      1.4750                 1.4355                 1.3695
 Frc consts  --      1.6173                 1.6174                 1.5586
 IR Inten    --      3.2937                 3.3197                 1.7367

                     49                     50                     51
                      A                      A                      A
 Frequencies --   1394.3232              1401.0662              1403.5310
 Red. masses --      1.5742                 1.4554                 1.5107
 Frc consts  --      1.8031                 1.6833                 1.7533
 IR Inten    --      2.5949                 6.9940                11.7192

                     52                     53                     54
                      A                      A                      A
 Frequencies --   1411.8019              1422.3767              1499.0292
 Red. masses --      1.4274                 1.6919                 1.0874
 Frc consts  --      1.6763                 2.0168                 1.4397
 IR Inten    --     11.3003                 2.1401                 8.0113

                     55                     56                     57
                      A                      A                      A
 Frequencies --   1513.3548              1513.9899              1517.0285
 Red. masses --      1.0905                 1.0955                 1.0918
 Frc consts  --      1.4715                 1.4795                 1.4803
 IR Inten    --      2.5492                 7.5107                 1.9984

                     58                     59                     60
                      A                      A                      A
 Frequencies --   1520.3034              1532.9039              1810.3138
 Red. masses --      1.0838                 1.0988                11.5115
 Frc consts  --      1.4760                 1.5212                22.2275
 IR Inten    --      7.6416                 0.0841               165.7143

                     61                     62                     63
                      A                      A                      A
 Frequencies --   2998.6321              3010.5307              3021.2558
 Red. masses --      1.0802                 1.0823                 1.0701
 Frc consts  --      5.7225                 5.7795                 5.7551
 IR Inten    --      3.6360                12.0445                16.6932

                     64                     65                     66
                      A                      A                      A
 Frequencies --   3026.4161              3035.3764              3045.3221
 Red. masses --      1.0635                 1.0630                 1.0738
 Frc consts  --      5.7390                 5.7702                 5.8673
 IR Inten    --     32.0436                21.1228                22.0390

                     67                     68                     69
                      A                      A                      A
 Frequencies --   3047.4767              3051.8614              3059.8250
 Red. masses --      1.0665                 1.0681                 1.0726
 Frc consts  --      5.8358                 5.8613                 5.9165
 IR Inten    --     14.1435                 2.8488                59.4632

                     70                     71                     72
                      A                      A                      A
 Frequencies --   3071.8444              3075.6375              3083.2486
 Red. masses --      1.0969                 1.0954                 1.1020
 Frc consts  --      6.0983                 6.1049                 6.1721
 IR Inten    --     52.8984                54.2942                58.7309

                     73                     74                     75
                      A                      A                      A
 Frequencies --   3098.2397              3098.8665              3128.0100
 Red. masses --      1.1006                 1.1000                 1.0986
 Frc consts  --      6.2248                 6.2236                 6.3330
 IR Inten    --     24.9634                37.6528                16.9499

 - Thermochemistry -
 -------------------
 Temperature   298.150 Kelvin.  Pressure   1.00000 Atm.
 Atom     1 has atomic number  8 and mass  15.99491

 Molecular mass:   170.11069 amu.
 Principal axes and moments of inertia in atomic units:
                           1         2         3
     Eigenvalues --  1409.797712056.069363078.80354
           X            0.99996   0.00365   0.00776
           Y           -0.00390   0.99949   0.03173
           Z           -0.00764  -0.03176   0.99947
 This molecule is an asymmetric top.
 Rotational symmetry number  1.
 Warning -- assumption of classical behavior for rotation
           may cause significant error
 Rotational temperatures (Kelvin)      0.06144     0.04213     0.02813
 Rotational constants (GHZ):           1.28014     0.87776     0.58618
 Zero-point vibrational energy     625750.5 (Joules/Mol)
                                  149.55795 (Kcal/Mol)
 Warning -- explicit consideration of  15 degrees of freedom as
           vibrations may cause significant error
 Vibrational temperatures:    110.44   146.87   202.89   258.85   345.50
          (Kelvin)            391.79   426.84   468.70   519.71   551.84
                              627.74   659.96   712.61   800.23   833.31
                              908.11  1057.45  1136.53  1179.34  1214.42
                             1237.55  1244.62  1283.64  1313.04  1383.27
                             1399.25  1430.35  1476.58  1523.32  1532.30
                             1541.83  1564.30  1589.64  1653.80  1662.14
                             1692.33  1734.08  1787.60  1810.41  1829.32
                             1843.34  1902.47  1919.88  1936.75  1940.70
                             1962.77  1989.59  1999.72  2006.12  2015.82
                             2019.37  2031.27  2046.48  2156.77  2177.38
                             2178.29  2182.67  2187.38  2205.51  2604.64
                             4314.36  4331.48  4346.91  4354.34  4367.23
                             4381.54  4384.64  4390.95  4402.41  4419.70
                             4425.16  4436.11  4457.68  4458.58  4500.51

 Zero-point correction=                           0.238336 (Hartree/Particle)
 Thermal correction to Energy=                    0.248735
 Thermal correction to Enthalpy=                  0.249679
 Thermal correction to Gibbs Free Energy=         0.202582
 Sum of electronic and zero-point Energies=           -564.941364
 Sum of electronic and thermal Energies=              -564.930965
 Sum of electronic and thermal Enthalpies=            -564.930021
 Sum of electronic and thermal Free Energies=         -564.977117

                     E (Thermal)             CV                S
                      KCal/Mol        Cal/Mol-Kelvin    Cal/Mol-Kelvin
 Total                  156.083             41.874             99.122
 Electronic               0.000              0.000              0.000
 Translational            0.889              2.981             41.302
 Rotational               0.889              2.981             30.568
 Vibrational            154.306             35.913             27.252
 Vibration     1          0.599              1.965              3.972
 Vibration     2          0.604              1.948              3.414
 Vibration     3          0.615              1.912              2.790
 Vibration     4          0.629              1.867              2.329
 Vibration     5          0.657              1.779              1.802
 Vibration     6          0.675              1.724              1.582
 Vibration     7          0.690              1.680              1.436
 Vibration     8          0.710              1.624              1.281
 Vibration     9          0.735              1.552              1.117
 Vibration    10          0.753              1.505              1.025
 Vibration    11          0.797              1.391              0.838
 Vibration    12          0.817              1.342              0.770
 Vibration    13          0.851              1.260              0.670
 Vibration    14          0.912              1.126              0.531
 Vibration    15          0.936              1.076              0.487

 Normal termination of Gaussian 16 at Sat Feb 24 04:28:41 2024.
