 Gaussian 16, Revision A.03,
 Gaussian 16:  EM64M-G16RevA.03 25-Dec-2016

 ---------------------
 # freq b3lyp/6-31g(d)
 ---------------------

 ---------
 good luck
 ---------
 Symbolic Z-matrix:
 Charge =  0 Multiplicity = 1

                         Standard orientation:
 ---------------------------------------------------------------------
 Center     Atomic      Atomic             Coordinates (Angstroms)
 Number     Number       Type             X           Y           Z
 ---------------------------------------------------------------------
      1          8           0       -2.803352   -1.365979   -1.008815
      2          6           0       -1.727554   -1.121639   -0.498049
      3          6           0       -0.539876   -2.082137   -0.527973
      4          6           0        0.668907   -1.417105    0.154825
      5          6           0        1.012920   -0.106655   -0.606377
      6          6           0        2.362253    0.511664   -0.177969
      7          6           0        3.572252   -0.407685   -0.393132
      8          6           0       -0.239145    0.870519   -0.543115
      9          6           0        0.043213    2.294296   -0.012019
     10          6           0       -1.158440    3.245148   -0.091405
     11          6           0       -1.396949    0.169562    0.233998
     12          6           0       -0.951871   -0.196301    1.670719
     13          6           0        0.300819   -1.118316    1.622895
     14          1           0       -0.328043   -2.346942   -1.572277
     15          1           0       -0.829676   -3.013993   -0.023340
     16          1           0        1.523457   -2.100856    0.119005
     17          1           0        1.141092   -0.389835   -1.661703
     18          1           0        2.527926    1.426062   -0.759564
     19          1           0        2.331741    0.826758    0.872658
     20          1           0        3.616167   -0.770172   -1.427930
     21          1           0        4.505128    0.130842   -0.191458
     22          1           0        3.554322   -1.282999    0.264713
     23          1           0       -0.596140    1.006847   -1.573612
     24          1           0        0.409927    2.259923    1.021548
     25          1           0        0.857151    2.728301   -0.604126
     26          1           0       -1.572424    3.277086   -1.106899
     27          1           0       -0.859582    4.264629    0.177588
     28          1           0       -1.967224    2.953621    0.586756
     29          1           0       -2.294772    0.791905    0.245150
     30          1           0       -1.780798   -0.688421    2.192392
     31          1           0       -0.742973    0.721436    2.231121
     32          1           0        0.104941   -2.061772    2.146841
     33          1           0        1.147427   -0.652690    2.139277
 ---------------------------------------------------------------------

 SCF Done:  E(RB3LYP) =  -544.549877291     A.U. after   13 cycles

 The electronic state is 1-A.
 Alpha  occ. eigenvalues --  -19.12698 -10.26140 -10.19576 -10.19194 -10.19100
 Alpha  occ. eigenvalues --  -10.18919 -10.18690 -10.18573 -10.18531 -10.18507
 Alpha  occ. eigenvalues --  -10.18444 -10.17821 -10.17657  -1.02614  -0.86135
 Alpha  occ. eigenvalues --   -0.78732  -0.78211  -0.74268  -0.72605  -0.70430
 Alpha  occ. eigenvalues --   -0.63611  -0.62933  -0.59633  -0.58010  -0.54748
 Alpha  occ. eigenvalues --   -0.50571  -0.49274  -0.47173  -0.45901  -0.44178
 Alpha  occ. eigenvalues --   -0.43612  -0.42900  -0.41423  -0.40505  -0.40202
 Alpha  occ. eigenvalues --   -0.39777  -0.38419  -0.38146  -0.37706  -0.36290
 Alpha  occ. eigenvalues --   -0.35443  -0.34859  -0.34436  -0.34057  -0.33623
 Alpha  occ. eigenvalues --   -0.32552  -0.29840  -0.29560  -0.28675  -0.22696
 Alpha virt. eigenvalues --   -0.00741   0.06259   0.08894   0.09866   0.10279
 Alpha virt. eigenvalues --    0.11549   0.13218   0.13316   0.13675   0.15505
 Alpha virt. eigenvalues --    0.16014   0.16395   0.16664   0.17189   0.17884

 Mulliken charges:
               1
     1  O   -0.460235
     2  C    0.450719
     3  C   -0.363851
     4  C   -0.106337
     5  C   -0.089033
     6  C   -0.261789
     7  C   -0.453172
     8  C   -0.109554
     9  C   -0.259446
    10  C   -0.453920
    11  C   -0.172945
    12  C   -0.294870
    13  C   -0.278109
    14  H    0.166519
    15  H    0.165379
    16  H    0.125408
    17  H    0.120006
    18  H    0.137092
    19  H    0.134671
    20  H    0.143364
    21  H    0.144650
    22  H    0.148372
    23  H    0.133316
    24  H    0.134918
    25  H    0.138396
    26  H    0.147549
    27  H    0.144096
    28  H    0.151161
    29  H    0.141700
    30  H    0.149747
    31  H    0.147593
    32  H    0.137737
    33  H    0.140867
 Sum of Mulliken charges =  -0.00000

 Dipole moment (field-independent basis, Debye):
    X=              2.8970    Y=              0.8641    Z=              1.2251  Tot=              3.2619
 Quadrupole moment (field-independent basis, Debye-Ang):
   XX=            -91.6125   YY=            -80.2323   ZZ=            -80.9891
   XY=             -4.3105   XZ=             -4.9146   YZ=             -2.0704

  Exact polarizability: 129.186  -0.215 124.665   1.130   0.926 105.609
 Approx polarizability: 177.536   4.528 167.524   6.768   2.754 164.170

 ******    1 imaginary frequencies (negative Signs) ******

                      1                      2                      3
                      A                      A                      A
 Frequencies --    -27.3354                85.6790                88.4062
 Red. masses --      3.3858                 2.1762                 2.2121
 Frc consts  --      0.0015                 0.0094                 0.0102
 IR Inten    --      1.1215                 0.8921                 0.4355

                      4                      5                      6
                      A                      A                      A
 Frequencies --     98.9192               174.3505               207.2647
 Red. masses --      3.0199                 2.4830                 2.2323
 Frc consts  --      0.0174                 0.0445                 0.0565
 IR Inten    --      2.2356                 0.1945                 0.2437

                      7                      8                      9
                      A                      A                      A
 Frequencies --    216.3832               225.1220               259.8625
 Red. masses --      1.6545                 1.5603                 1.3801
 Frc consts  --      0.0456                 0.0466                 0.0549
 IR Inten    --      0.0674                 0.0591                 0.1638

                     10                     11                     12
                      A                      A                      A
 Frequencies --    281.6222               314.0329               340.5724
 Red. masses --      1.7380                 2.7803                 3.3640
 Frc consts  --      0.0812                 0.1615                 0.2299
 IR Inten    --      0.0718                 0.0748                 0.7740

                     13                     14                     15
                      A                      A                      A
 Frequencies --    394.3902               410.1756               430.6115
 Red. masses --      2.8647                 2.9471                 3.3495
 Frc consts  --      0.2625                 0.2921                 0.3659
 IR Inten    --      1.2380                 1.9749                 1.1002

                     16                     17                     18
                      A                      A                      A
 Frequencies --    478.7114               540.6803               585.4376
 Red. masses --      3.6740                 3.5186                 2.9816
 Frc consts  --      0.4961                 0.6060                 0.6021
 IR Inten    --      9.0434                 2.1755                 0.7930

                     19                     20                     21
                      A                      A                      A
 Frequencies --    614.8418               631.3502               729.5945
 Red. masses --      3.2141                 3.6313                 2.7275
 Frc consts  --      0.7159                 0.8528                 0.8554
 IR Inten    --      0.2017                 1.5227                 1.4447

                     22                     23                     24
                      A                      A                      A
 Frequencies --    737.5064               779.5248               821.2969
 Red. masses --      1.9493                 2.1357                 1.3202
 Frc consts  --      0.6247                 0.7646                 0.5247
 IR Inten    --      0.3583                 2.8108                 1.7049

                     25                     26                     27
                      A                      A                      A
 Frequencies --    838.5431               846.4506               862.7416
 Red. masses --      1.3846                 2.2417                 1.8488
 Frc consts  --      0.5736                 0.9463                 0.8108
 IR Inten    --      7.3963                 0.8917                 3.0976

                     28                     29                     30
                      A                      A                      A
 Frequencies --    889.3568               938.9863               951.1027
 Red. masses --      2.1445                 1.9090                 2.0844
 Frc consts  --      0.9994                 0.9917                 1.1109
 IR Inten    --      0.9799                 4.9104                 1.0066

                     31                     32                     33
                      A                      A                      A
 Frequencies --    966.3917               986.5192              1012.4425
 Red. masses --      2.5735                 2.6275                 2.2698
 Frc consts  --      1.4161                 1.5066                 1.3708
 IR Inten    --      3.5897                 1.2696                 1.4913

                     34                     35                     36
                      A                      A                      A
 Frequencies --   1023.7881              1057.4658              1061.9298
 Red. masses --      1.9892                 2.2842                 2.5483
 Frc consts  --      1.2284                 1.5050                 1.6931
 IR Inten    --      0.8121                 0.2248                 0.1095

                     37                     38                     39
                      A                      A                      A
 Frequencies --   1080.4179              1086.9922              1097.3525
 Red. masses --      1.5584                 2.9281                 1.9419
 Frc consts  --      1.0718                 2.0384                 1.3778
 IR Inten    --      5.3302                10.9060                 2.4446

                     40                     41                     42
                      A                      A                      A
 Frequencies --   1112.2302              1130.3037              1143.9365
 Red. masses --      1.7192                 1.5294                 1.2987
 Frc consts  --      1.2530                 1.1512                 1.0013
 IR Inten    --     11.1921                 0.0365                 9.8185

                     43                     44                     45
                      A                      A                      A
 Frequencies --   1170.9488              1195.2992              1226.1821
 Red. masses --      2.3692                 1.1275                 1.7955
 Frc consts  --      1.9139                 0.9491                 1.5906
 IR Inten    --      1.3492                 0.8947                13.1598

                     46                     47                     48
                      A                      A                      A
 Frequencies --   1258.2850              1269.2654              1277.7639
 Red. masses --      1.5467                 1.2556                 1.3756
 Frc consts  --      1.4429                 1.1918                 1.3232
 IR Inten    --     14.1629                 1.3989                 0.4759

                     49                     50                     51
                      A                      A                      A
 Frequencies --   1304.8624              1320.4183              1328.7601
 Red. masses --      1.4096                 1.4380                 1.3374
 Frc consts  --      1.4141                 1.4771                 1.3913
 IR Inten    --      0.5488                 1.3760                 4.8669

                     52                     53                     54
                      A                      A                      A
 Frequencies --   1331.0214              1345.0018              1357.4861
 Red. masses --      1.3899                 1.3417                 1.5211
 Frc consts  --      1.4508                 1.4300                 1.6514
 IR Inten    --      2.2329                 5.3312                 1.4674

                     55                     56                     57
                      A                      A                      A
 Frequencies --   1363.7606              1372.0989              1389.1218
 Red. masses --      1.3353                 1.3685                 1.3127
 Frc consts  --      1.4632                 1.5180                 1.4924
 IR Inten    --      0.3311                 7.5756                 5.5669

                     58                     59                     60
                      A                      A                      A
 Frequencies --   1395.5310              1401.4623              1411.2830
 Red. masses --      1.4460                 1.4067                 1.3774
 Frc consts  --      1.6592                 1.6278                 1.6164
 IR Inten    --      0.3662                 0.8865                 0.7609

                     61                     62                     63
                      A                      A                      A
 Frequencies --   1413.9092              1441.8420              1443.5673
 Red. masses --      1.3988                 1.2326                 1.2341
 Frc consts  --      1.6475                 1.5097                 1.5153
 IR Inten    --      1.4718                 2.8771                 1.0402

                     64                     65                     66
                      A                      A                      A
 Frequencies --   1475.0881              1507.2075              1524.3135
 Red. masses --      1.0870                 1.0740                 1.0559
 Frc consts  --      1.3935                 1.4375                 1.4455
 IR Inten    --      9.2650                 2.1013                 0.0300

                     67                     68                     69
                      A                      A                      A
 Frequencies --   1526.6034              1530.4302              1530.7286
 Red. masses --      1.0604                 1.0550                 1.0552
 Frc consts  --      1.4561                 1.4559                 1.4567
 IR Inten    --      0.0597                 5.0388                 8.5419

                     70                     71                     72
                      A                      A                      A
 Frequencies --   1538.8853              1539.8394              1551.2899
 Red. masses --      1.0601                 1.0594                 1.0890
 Frc consts  --      1.4791                 1.4800                 1.5440
 IR Inten    --      4.9574                 0.7464                 9.3018

                     73                     74                     75
                      A                      A                      A
 Frequencies --   1823.8391              2998.4035              3024.7464
 Red. masses --     11.8458                 1.0846                 1.0838
 Frc consts  --     23.2160                 5.7452                 5.8423
 IR Inten    --    222.5075                10.6718                31.6817

                     76                     77                     78
                      A                      A                      A
 Frequencies --   3041.2747              3042.3799              3045.2985
 Red. masses --      1.0607                 1.0611                 1.0384
 Frc consts  --      5.7802                 5.7868                 5.6738
 IR Inten    --     40.5442                16.2370                26.3636

                     79                     80                     81
                      A                      A                      A
 Frequencies --   3047.2513              3049.8233              3054.3560
 Red. masses --      1.0378                 1.0632                 1.0603
 Frc consts  --      5.6778                 5.8263                 5.8281
 IR Inten    --     21.4767                 7.9455                20.6973

                     82                     83                     84
                      A                      A                      A
 Frequencies --   3063.3442              3072.0661              3080.0196
 Red. masses --      1.0626                 1.1022                 1.0880
 Frc consts  --      5.8750                 6.1290                 6.0812
 IR Inten    --     46.6688                 0.7884                44.6363

                     85                     86                     87
                      A                      A                      A
 Frequencies --   3081.1209              3081.3164              3088.1963
 Red. masses --      1.1005                 1.1011                 1.0996
 Frc consts  --      6.1555                 6.1595                 6.1788
 IR Inten    --      8.7134                 8.3028                37.4153

                     88                     89                     90
                      A                      A                      A
 Frequencies --   3102.5936              3109.2022              3110.9252
 Red. masses --      1.1035                 1.1014                 1.1012
 Frc consts  --      6.2585                 6.2730                 6.2792
 IR Inten    --     38.9325                19.2290                73.7997

                     91                     92                     93
                      A                      A                      A
 Frequencies --   3112.2174              3120.7185              3125.1126
 Red. masses --      1.0904                 1.1009                 1.0979
 Frc consts  --      6.2227                 6.3171                 6.3174
 IR Inten    --     27.3168                39.5680                59.1570

 - Thermochemistry -
 -------------------
 Temperature   298.150 Kelvin.  Pressure   1.00000 Atm.
 Atom     1 has atomic number  8 and mass  15.99491

 Molecular mass:   180.15142 amu.
 Principal axes and moments of inertia in atomic units:
                           1         2         3
     Eigenvalues --  1974.904862393.501983424.17024
           X            0.99125  -0.13053  -0.01963
           Y            0.13038   0.99142  -0.00898
           Z            0.02064   0.00635   0.99977
 This molecule is an asymmetric top.
 Rotational symmetry number  1.
 Warning -- assumption of classical behavior for rotation
           may cause significant error
 Rotational temperatures (Kelvin)      0.04386     0.03619     0.02529
 Rotational constants (GHZ):           0.91384     0.75402     0.52706
    1 imaginary frequencies ignored.
 Zero-point vibrational energy     792823.6 (Joules/Mol)
                                  189.48938 (Kcal/Mol)
 Warning -- explicit consideration of  18 degrees of freedom as
           vibrations may cause significant error
 Vibrational temperatures:    123.27   127.20   142.32   250.85   298.21
          (Kelvin)            311.33   323.90   373.88   405.19   451.82
                              490.01   567.44   590.15   619.55   688.76
                              777.92   842.31   884.62   908.37  1049.72
                             1061.11  1121.56  1181.66  1206.48  1217.85
                             1241.29  1279.59  1350.99  1368.42  1390.42
                             1419.38  1456.68  1473.00  1521.46  1527.88
                             1554.48  1563.94  1578.85  1600.25  1626.25
                             1645.87  1684.73  1719.77  1764.20  1810.39
                             1826.19  1838.42  1877.41  1899.79  1911.79
                             1915.04  1935.16  1953.12  1962.15  1974.14
                             1998.64  2007.86  2016.39  2030.52  2034.30
                             2074.49  2076.97  2122.32  2168.54  2193.15
                             2196.44  2201.95  2202.38  2214.11  2215.49
                             2231.96  2624.10  4314.03  4351.94  4375.72
                             4377.31  4381.51  4384.31  4388.02  4394.54
                             4407.47  4420.02  4431.46  4433.05  4433.33
                             4443.23  4463.94  4473.45  4475.93  4477.79
                             4490.02  4496.34

 Zero-point correction=                           0.301971 (Hartree/Particle)
 Thermal correction to Energy=                    0.314064
 Thermal correction to Enthalpy=                  0.315008
 Thermal correction to Gibbs Free Energy=         0.264474
 Sum of electronic and zero-point Energies=           -544.247907
 Sum of electronic and thermal Energies=              -544.235813
 Sum of electronic and thermal Enthalpies=            -544.234869
 Sum of electronic and thermal Free Energies=         -544.285403

                     E (Thermal)             CV                S
                      KCal/Mol        Cal/Mol-Kelvin    Cal/Mol-Kelvin
 Total                  197.078             48.918            106.358
 Electronic               0.000              0.000              0.000
 Translational            0.889              2.981             41.473
 Rotational               0.889              2.981             31.160
 Vibrational            195.301             42.957             33.725
 Vibration     1          0.601              1.959              3.756
 Vibration     2          0.601              1.957              3.695
 Vibration     3          0.604              1.950              3.476
 Vibration     4          0.627              1.874              2.388
 Vibration     5          0.641              1.830              2.068
 Vibration     6          0.645              1.816              1.989
 Vibration     7          0.650              1.803              1.918
 Vibration     8          0.668              1.746              1.663
 Vibration     9          0.681              1.708              1.524
 Vibration    10          0.702              1.647              1.341
 Vibration    11          0.720              1.594              1.209
 Vibration    12          0.761              1.482              0.983
 Vibration    13          0.774              1.448              0.926
 Vibration    14          0.792              1.404              0.857
 Vibration    15          0.835              1.297              0.714
 Vibration    16          0.896              1.160              0.564
 Vibration    17          0.942              1.063              0.475
 Vibration    18          0.974              1.000              0.425

 Normal termination of Gaussian 16 at Mon Feb 26 15:40:38 2024.
