 Gaussian 16, Revision A.03,
 Gaussian 16:  EM64M-G16RevA.03 25-Dec-2016

 ---------------------
 # freq b3lyp/6-31g(d)
 ---------------------

 ---------
 good luck
 ---------
 Symbolic Z-matrix:
 Charge =  0 Multiplicity = 1

                         Standard orientation:
 ---------------------------------------------------------------------
 Center     Atomic      Atomic             Coordinates (Angstroms)
 Number     Number       Type             X           Y           Z
 ---------------------------------------------------------------------
      1          8           0       -2.851316    0.485444   -0.493132
      2          6           0       -1.783212    0.195612    0.012237
      3          6           0       -0.696336    1.226588    0.277302
      4          6           0        0.693781    0.798226   -0.254005
      5          6           0        1.734191    1.871318    0.095574
      6          6           0        1.066139   -0.614732    0.260135
      7          6           0        2.425373   -1.102475   -0.262034
      8          6           0       -0.036844   -1.626597   -0.106855
      9          6           0       -1.425611   -1.223940    0.424129
     10          1           0       -1.011336    2.181313   -0.155434
     11          1           0       -0.625030    1.366023    1.368221
     12          1           0        0.624780    0.737627   -1.352069
     13          1           0        2.701532    1.675523   -0.377413
     14          1           0        1.893431    1.924716    1.180657
     15          1           0        1.398127    2.859650   -0.238678
     16          1           0        1.122987   -0.561171    1.360504
     17          1           0        2.625601   -2.125466    0.077300
     18          1           0        3.251143   -0.473895    0.085079
     19          1           0        2.445700   -1.108126   -1.359649
     20          1           0       -0.082537   -1.721734   -1.201605
     21          1           0        0.226958   -2.619779    0.277599
     22          1           0       -2.211516   -1.901287    0.077198
     23          1           0       -1.414200   -1.260946    1.524453
 ---------------------------------------------------------------------

 SCF Done:  E(RB3LYP) =  -388.519445257     A.U. after   13 cycles

 The electronic state is 1-A.
 Alpha  occ. eigenvalues --  -19.13108 -10.26692 -10.19968 -10.19640 -10.19200
 Alpha  occ. eigenvalues --  -10.18933 -10.18773 -10.18051 -10.18015  -1.02977
 Alpha  occ. eigenvalues --   -0.84213  -0.77082  -0.75428  -0.69622  -0.65816
 Alpha  occ. eigenvalues --   -0.60994  -0.56778  -0.53149  -0.46660  -0.45669
 Alpha  occ. eigenvalues --   -0.45298  -0.44675  -0.43665  -0.41199  -0.39791
 Alpha  occ. eigenvalues --   -0.38364  -0.37981  -0.37749  -0.37263  -0.34887
 Alpha  occ. eigenvalues --   -0.34554  -0.32464  -0.31533  -0.31253  -0.23359
 Alpha virt. eigenvalues --   -0.01085   0.08461   0.09644   0.10861   0.11621
 Alpha virt. eigenvalues --    0.14276   0.15119   0.15407   0.15602   0.16581
 Alpha virt. eigenvalues --    0.17193   0.17950   0.18198   0.19134   0.19518

 Mulliken charges:
               1
     1  O   -0.448105
     2  C    0.450148
     3  C   -0.346501
     4  C   -0.081242
     5  C   -0.452643
     6  C   -0.072146
     7  C   -0.454617
     8  C   -0.273812
     9  C   -0.345429
    10  H    0.159882
    11  H    0.148650
    12  H    0.128691
    13  H    0.150367
    14  H    0.140809
    15  H    0.147620
    16  H    0.116119
    17  H    0.143819
    18  H    0.149488
    19  H    0.143068
    20  H    0.141272
    21  H    0.139893
    22  H    0.162107
    23  H    0.152562
 Sum of Mulliken charges =  -0.00000

 Dipole moment (field-independent basis, Debye):
    X=              2.8517    Y=             -0.7253    Z=              1.0923  Tot=              3.1387
 Quadrupole moment (field-independent basis, Debye-Ang):
   XX=            -66.9872   YY=            -54.9968   ZZ=            -55.4417
   XY=              2.5698   XZ=             -3.1469   YZ=              0.2573

  Exact polarizability:  94.015  -0.187  85.717   2.251  -1.000  69.679
 Approx polarizability: 125.453  -3.573 112.800   8.573  -2.825 111.787

                      1                      2                      3
                      A                      A                      A
 Frequencies --     74.2053               117.2983               191.5198
 Red. masses --      4.3893                 2.6993                 2.1171
 Frc consts  --      0.0142                 0.0219                 0.0458
 IR Inten    --      2.7397                 1.0662                 0.6671

                      4                      5                      6
                      A                      A                      A
 Frequencies --    214.4954               223.7360               316.1607
 Red. masses --      1.0603                 1.3034                 2.5625
 Frc consts  --      0.0287                 0.0384                 0.1509
 IR Inten    --      0.0098                 0.0250                 0.8226

                      7                      8                      9
                      A                      A                      A
 Frequencies --    324.3912               346.9122               380.2828
 Red. masses --      1.8275                 2.0601                 3.1715
 Frc consts  --      0.1133                 0.1461                 0.2702
 IR Inten    --      0.0475                 0.0208                 1.7448

                     10                     11                     12
                      A                      A                      A
 Frequencies --    420.3918               474.8543               490.4951
 Red. masses --      3.5636                 2.5867                 2.3039
 Frc consts  --      0.3711                 0.3436                 0.3266
 IR Inten    --      1.5460                 1.3498                 0.8662

                     13                     14                     15
                      A                      A                      A
 Frequencies --    524.8388               679.4051               745.8526
 Red. masses --      2.8166                 3.5075                 2.2083
 Frc consts  --      0.4571                 0.9539                 0.7238
 IR Inten    --      9.9213                 0.8770                 1.5229

                     16                     17                     18
                      A                      A                      A
 Frequencies --    806.3394               838.8950               875.8873
 Red. masses --      1.9668                 2.4034                 1.7902
 Frc consts  --      0.7534                 0.9966                 0.8092
 IR Inten    --      3.2100                 1.9707                 1.2294

                     19                     20                     21
                      A                      A                      A
 Frequencies --    938.9234               959.5482               971.8525
 Red. masses --      1.8728                 1.7507                 1.3143
 Frc consts  --      0.9727                 0.9497                 0.7314
 IR Inten    --      1.3988                 0.2727                 3.1181

                     22                     23                     24
                      A                      A                      A
 Frequencies --    991.1520              1023.1249              1062.3503
 Red. masses --      1.2771                 1.8458                 2.6806
 Frc consts  --      0.7392                 1.1384                 1.7824
 IR Inten    --      1.7323                 5.6759                 3.0673

                     25                     26                     27
                      A                      A                      A
 Frequencies --   1079.5919              1116.8889              1142.5559
 Red. masses --      1.2840                 2.6786                 2.0256
 Frc consts  --      0.8817                 1.9687                 1.5579
 IR Inten    --      4.7381                 0.0880                14.4302

                     28                     29                     30
                      A                      A                      A
 Frequencies --   1160.5950              1192.6349              1241.5239
 Red. masses --      1.9990                 1.8801                 1.7378
 Frc consts  --      1.5865                 1.5756                 1.5782
 IR Inten    --      1.7788                 2.4422                28.2611

                     31                     32                     33
                      A                      A                      A
 Frequencies --   1259.1827              1283.8197              1315.2654
 Red. masses --      1.5138                 1.4710                 1.4713
 Frc consts  --      1.4142                 1.4285                 1.4996
 IR Inten    --      4.8741                 9.1632                 8.4711

                     34                     35                     36
                      A                      A                      A
 Frequencies --   1328.9218              1347.9520              1366.2407
 Red. masses --      1.3795                 1.2809                 1.3527
 Frc consts  --      1.4354                 1.3713                 1.4876
 IR Inten    --      1.9351                 7.6846                10.5520

                     37                     38                     39
                      A                      A                      A
 Frequencies --   1373.5224              1402.5075              1407.6780
 Red. masses --      1.3955                 1.5641                 1.4973
 Frc consts  --      1.5511                 1.8127                 1.7481
 IR Inten    --      3.2239                 4.1112                 1.3212

                     40                     41                     42
                      A                      A                      A
 Frequencies --   1436.5528              1444.0591              1490.3431
 Red. masses --      1.2479                 1.2187                 1.0960
 Frc consts  --      1.5172                 1.4974                 1.4343
 IR Inten    --      4.4642                 2.5133                 6.1810

                     43                     44                     45
                      A                      A                      A
 Frequencies --   1500.5839              1520.7403              1525.6687
 Red. masses --      1.0871                 1.0759                 1.0485
 Frc consts  --      1.4423                 1.4660                 1.4379
 IR Inten    --      7.4144                 1.1038                 8.8751

                     46                     47                     48
                      A                      A                      A
 Frequencies --   1528.3006              1530.6350              1543.2525
 Red. masses --      1.0614                 1.0562                 1.0455
 Frc consts  --      1.4607                 1.4579                 1.4670
 IR Inten    --      6.5626                 5.2277                 2.7308

                     49                     50                     51
                      A                      A                      A
 Frequencies --   1818.6050              2984.6928              3000.1989
 Red. masses --     10.9716                 1.0808                 1.0798
 Frc consts  --     21.3796                 5.6730                 5.7265
 IR Inten    --    199.3860                 6.2890                 9.5960

                     52                     53                     54
                      A                      A                      A
 Frequencies --   3014.4466              3021.9156              3031.1116
 Red. masses --      1.0720                 1.0699                 1.0617
 Frc consts  --      5.7396                 5.7567                 5.7471
 IR Inten    --     15.5487                 8.3509                41.8117

                     55                     56                     57
                      A                      A                      A
 Frequencies --   3042.2303              3044.4652              3074.3879
 Red. masses --      1.0386                 1.0398                 1.1004
 Frc consts  --      5.6635                 5.6783                 6.1280
 IR Inten    --     38.4988                32.0798                31.3499

                     58                     59                     60
                      A                      A                      A
 Frequencies --   3103.6748              3104.8561              3110.6850
 Red. masses --      1.0995                 1.1005                 1.0945
 Frc consts  --      6.2402                 6.2508                 6.2399
 IR Inten    --      4.8456                47.9627                39.5516

                     61                     62                     63
                      A                      A                      A
 Frequencies --   3117.0617              3120.1863              3130.0478
 Red. masses --      1.0945                 1.1016                 1.0992
 Frc consts  --      6.2656                 6.3186                 6.3452
 IR Inten    --     20.0141                34.9462                31.5014

 - Thermochemistry -
 -------------------
 Temperature   298.150 Kelvin.  Pressure   1.00000 Atm.
 Atom     1 has atomic number  8 and mass  15.99491

 Molecular mass:   126.10447 amu.
 Principal axes and moments of inertia in atomic units:
                           1         2         3
     Eigenvalues --   738.300161403.218171980.50588
           X            0.99964   0.02441  -0.01139
           Y           -0.02432   0.99968   0.00759
           Z            0.01157  -0.00731   0.99991
 This molecule is an asymmetric top.
 Rotational symmetry number  1.
 Warning -- assumption of classical behavior for rotation
           may cause significant error
 Rotational temperatures (Kelvin)      0.11732     0.06173     0.04373
 Rotational constants (GHZ):           2.44445     1.28614     0.91125
 Zero-point vibrational energy     545799.2 (Joules/Mol)
                                  130.44913 (Kcal/Mol)
 Warning -- explicit consideration of  13 degrees of freedom as
           vibrations may cause significant error
 Vibrational temperatures:    106.76   168.77   275.55   308.61   321.91
          (Kelvin)            454.88   466.73   499.13   547.14   604.85
                              683.21   705.71   755.13   977.51  1073.12
                             1160.14  1206.98  1260.21  1350.90  1380.58
                             1398.28  1426.05  1472.05  1528.49  1553.29
                             1606.95  1643.88  1669.84  1715.94  1786.28
                             1811.68  1847.13  1892.37  1912.02  1939.40
                             1965.72  1976.19  2017.90  2025.33  2066.88
                             2077.68  2144.27  2159.01  2188.01  2195.10
                             2198.88  2202.24  2220.40  2616.57  4294.31
                             4316.62  4337.12  4347.86  4361.09  4377.09
                             4380.31  4423.36  4465.50  4467.20  4475.58
                             4484.76  4489.25  4503.44

 Zero-point correction=                           0.207884 (Hartree/Particle)
 Thermal correction to Energy=                    0.217202
 Thermal correction to Enthalpy=                  0.218147
 Thermal correction to Gibbs Free Energy=         0.174001
 Sum of electronic and zero-point Energies=           -388.311561
 Sum of electronic and thermal Energies=              -388.302243
 Sum of electronic and thermal Enthalpies=            -388.301299
 Sum of electronic and thermal Free Energies=         -388.345444

                     E (Thermal)             CV                S
                      KCal/Mol        Cal/Mol-Kelvin    Cal/Mol-Kelvin
 Total                  136.297             35.910             92.913
 Electronic               0.000              0.000              0.000
 Translational            0.889              2.981             40.409
 Rotational               0.889              2.981             29.108
 Vibrational            134.519             29.948             23.396
 Vibration     1          0.599              1.966              4.039
 Vibration     2          0.608              1.935              3.144
 Vibration     3          0.634              1.852              2.213
 Vibration     4          0.644              1.819              2.005
 Vibration     5          0.649              1.805              1.929
 Vibration     6          0.703              1.643              1.330
 Vibration     7          0.709              1.627              1.288
 Vibration     8          0.725              1.582              1.180
 Vibration     9          0.750              1.512              1.038
 Vibration    10          0.783              1.426              0.891
 Vibration    11          0.832              1.306              0.724
 Vibration    12          0.846              1.271              0.682
 Vibration    13          0.880              1.195              0.599

 Normal termination of Gaussian 16 at Wed Feb 21 18:51:24 2024.
