 Gaussian 16, Revision A.03,
 Gaussian 16:  EM64M-G16RevA.03 25-Dec-2016

 ---------------------
 # freq b3lyp/6-31g(d)
 ---------------------

 ---------
 good luck
 ---------
 Symbolic Z-matrix:
 Charge =  0 Multiplicity = 1

                         Standard orientation:
 ---------------------------------------------------------------------
 Center     Atomic      Atomic             Coordinates (Angstroms)
 Number     Number       Type             X           Y           Z
 ---------------------------------------------------------------------
      1          6           0        3.121647    0.014265   -0.603894
      2          6           0        2.020434   -0.674266    0.213062
      3          6           0        0.616989   -0.300288   -0.265873
      4          6           0       -0.594140   -0.760428    0.635034
      5          6           0       -0.352670    0.547063    1.462236
      6          6           0        0.059251    1.122631    0.077286
      7          6           0       -1.288385    1.110858   -0.673090
      8          6           0       -1.749181   -0.304107   -0.243420
      9          8           0       -2.764674   -0.888165   -0.542967
     10          1           0        3.066280    1.105256   -0.511958
     11          1           0        3.038716   -0.233541   -1.669072
     12          1           0        4.115923   -0.297865   -0.265730
     13          1           0        2.154552   -0.438278    1.275336
     14          1           0        2.133407   -1.763733    0.127844
     15          1           0        0.527535   -0.578730   -1.326148
     16          1           0       -0.667083   -1.753804    1.079566
     17          1           0        0.474388    0.452908    2.167703
     18          1           0       -1.214763    0.996433    1.968303
     19          1           0        0.676261    2.020094   -0.011230
     20          1           0       -1.197284    1.183273   -1.763106
     21          1           0       -1.994214    1.878936   -0.335820
 ---------------------------------------------------------------------

 SCF Done:  E(RB3LYP) =  -387.259145651     A.U. after   13 cycles

 The electronic state is 1-A.
 Alpha  occ. eigenvalues --  -19.13369 -10.26895 -10.20435 -10.20381 -10.19976
 Alpha  occ. eigenvalues --  -10.19842 -10.19188 -10.19133 -10.18208  -1.03332
 Alpha  occ. eigenvalues --   -0.89920  -0.77805  -0.71940  -0.67526  -0.66978
 Alpha  occ. eigenvalues --   -0.61205  -0.54108  -0.52675  -0.50119  -0.47400
 Alpha  occ. eigenvalues --   -0.45480  -0.43818  -0.41423  -0.40237  -0.39138
 Alpha  occ. eigenvalues --   -0.38416  -0.37132  -0.36667  -0.35590  -0.33680
 Alpha  occ. eigenvalues --   -0.32275  -0.31350  -0.30732  -0.23059
 Alpha virt. eigenvalues --   -0.00440   0.08230   0.10233   0.10984   0.11867
 Alpha virt. eigenvalues --    0.13338   0.13797   0.14812   0.15786   0.16031
 Alpha virt. eigenvalues --    0.17188   0.18050   0.19333   0.20062   0.21752

 Mulliken charges:
               1
     1  C   -0.446254
     2  C   -0.265999
     3  C   -0.089266
     4  C   -0.170584
     5  C   -0.290324
     6  C   -0.122801
     7  C   -0.346376
     8  C    0.451248
     9  O   -0.455352
    10  H    0.146857
    11  H    0.146281
    12  H    0.148077
    13  H    0.136479
    14  H    0.141972
    15  H    0.127567
    16  H    0.132246
    17  H    0.154312
    18  H    0.145214
    19  H    0.126482
    20  H    0.165415
    21  H    0.164803
 Sum of Mulliken charges =  -0.00000

 Dipole moment (field-independent basis, Debye):
    X=              2.9052    Y=              1.3817    Z=              0.7718  Tot=              3.3083
 Quadrupole moment (field-independent basis, Debye-Ang):
   XX=            -63.7521   YY=            -54.8138   ZZ=            -53.7055
   XY=             -4.9959   XZ=             -2.1821   YZ=             -0.8798

  Exact polarizability:  93.602   0.010  74.308   1.813  -0.680  72.408
 Approx polarizability: 124.674   5.577 111.443   5.358   1.465 108.177

                      1                      2                      3
                      A                      A                      A
 Frequencies --     77.7307               136.4886               159.4901
 Red. masses --      2.6565                 3.1590                 2.9362
 Frc consts  --      0.0095                 0.0347                 0.0440
 IR Inten    --      1.3140                 2.2553                 0.3332

                      4                      5                      6
                      A                      A                      A
 Frequencies --    217.5499               301.8638               360.2375
 Red. masses --      1.2558                 1.9549                 3.7990
 Frc consts  --      0.0350                 0.1050                 0.2905
 IR Inten    --      0.4040                 0.4776                 0.7420

                      7                      8                      9
                      A                      A                      A
 Frequencies --    423.9941               467.0463               506.5988
 Red. masses --      2.0688                 3.0403                 3.0183
 Frc consts  --      0.2191                 0.3907                 0.4564
 IR Inten    --      0.8777                 3.0406                 4.5281

                     10                     11                     12
                      A                      A                      A
 Frequencies --    593.4314               617.7979               749.9138
 Red. masses --      4.4704                 2.3573                 1.6848
 Frc consts  --      0.9276                 0.5301                 0.5583
 IR Inten    --      3.0738                 1.1146                 5.6310

                     13                     14                     15
                      A                      A                      A
 Frequencies --    773.2148               821.5669               840.7453
 Red. masses --      2.4746                 2.6390                 3.0344
 Frc consts  --      0.8717                 1.0495                 1.2637
 IR Inten    --      6.5648                 9.5795                 2.2154

                     16                     17                     18
                      A                      A                      A
 Frequencies --    866.3145               901.8492               936.1278
 Red. masses --      1.6921                 2.0085                 2.2542
 Frc consts  --      0.7482                 0.9625                 1.1639
 IR Inten    --      0.8444                 2.8385                 4.5977

                     19                     20                     21
                      A                      A                      A
 Frequencies --    950.1076               982.3645              1000.8125
 Red. masses --      2.0719                 1.7277                 3.0706
 Frc consts  --      1.1020                 0.9823                 1.8121
 IR Inten    --      0.3350                 1.3289                12.1130

                     22                     23                     24
                      A                      A                      A
 Frequencies --   1014.0991              1075.5652              1081.2674
 Red. masses --      1.5582                 1.7168                 1.7117
 Frc consts  --      0.9441                 1.1702                 1.1791
 IR Inten    --      4.3831                 0.6287                 8.2490

                     25                     26                     27
                      A                      A                      A
 Frequencies --   1096.0810              1113.5103              1123.1950
 Red. masses --      1.2416                 1.4414                 1.5561
 Frc consts  --      0.8789                 1.0530                 1.1567
 IR Inten    --      2.8409                 6.2321                 2.5892

                     28                     29                     30
                      A                      A                      A
 Frequencies --   1172.7220              1182.6485              1226.0749
 Red. masses --      1.8073                 1.6652                 1.5822
 Frc consts  --      1.4644                 1.3723                 1.4013
 IR Inten    --     12.4495                 5.0029                 2.1986

                     31                     32                     33
                      A                      A                      A
 Frequencies --   1247.8008              1257.9590              1277.0339
 Red. masses --      1.9425                 1.5157                 1.6549
 Frc consts  --      1.7819                 1.4132                 1.5901
 IR Inten    --      2.3921                 0.4998                 1.4618

                     34                     35                     36
                      A                      A                      A
 Frequencies --   1285.8508              1311.0768              1318.5018
 Red. masses --      1.6826                 1.3688                 1.3961
 Frc consts  --      1.6391                 1.3862                 1.4300
 IR Inten    --      1.4142                 5.5433                 4.5329

                     37                     38                     39
                      A                      A                      A
 Frequencies --   1370.5280              1434.1284              1441.6235
 Red. masses --      1.3891                 1.3988                 1.2338
 Frc consts  --      1.5373                 1.6950                 1.5108
 IR Inten    --      8.3396                 0.6006                 2.7097

                     40                     41                     42
                      A                      A                      A
 Frequencies --   1491.9236              1516.5440              1529.7786
 Red. masses --      1.0959                 1.0683                 1.0415
 Frc consts  --      1.4372                 1.4476                 1.4361
 IR Inten    --      5.0205                 0.3239                 6.2846

                     43                     44                     45
                      A                      A                      A
 Frequencies --   1535.1732              1550.2042              1864.7760
 Red. masses --      1.0693                 1.0995                12.3184
 Frc consts  --      1.4848                 1.5567                25.2381
 IR Inten    --      3.3959                 4.3101               292.6951

                     46                     47                     48
                      A                      A                      A
 Frequencies --   3023.7065              3040.0207              3046.2596
 Red. masses --      1.0844                 1.0642                 1.0360
 Frc consts  --      5.8412                 5.7947                 5.6645
 IR Inten    --     27.5109                25.3087                29.0192

                     49                     50                     51
                      A                      A                      A
 Frequencies --   3065.3414              3073.9188              3080.0242
 Red. masses --      1.0595                 1.0741                 1.0885
 Frc consts  --      5.8654                 5.9795                 6.0842
 IR Inten    --     17.8000                 8.3137                40.9686

                     52                     53                     54
                      A                      A                      A
 Frequencies --   3109.9003              3112.7497              3116.5183
 Red. masses --      1.1053                 1.1022                 1.1012
 Frc consts  --      6.2983                 6.2921                 6.3016
 IR Inten    --     10.9578                48.0884                33.1580

                     55                     56                     57
                      A                      A                      A
 Frequencies --   3121.6652              3148.8215              3153.4910
 Red. masses --      1.0915                 1.0972                 1.0935
 Frc consts  --      6.2670                 6.4098                 6.4072
 IR Inten    --     49.3441                25.8764                27.8733

 - Thermochemistry -
 -------------------
 Temperature   298.150 Kelvin.  Pressure   1.00000 Atm.
 Atom     1 has atomic number  6 and mass  12.00000

 Molecular mass:   124.08882 amu.
 Principal axes and moments of inertia in atomic units:
                           1         2         3
     Eigenvalues --   520.408861694.109021739.28194
           X            0.99969  -0.02265  -0.01070
           Y            0.02102   0.99077  -0.13389
           Z            0.01364   0.13363   0.99094
 This molecule is an asymmetric top.
 Rotational symmetry number  1.
 Warning -- assumption of classical behavior for rotation
           may cause significant error
 Rotational temperatures (Kelvin)      0.16643     0.05113     0.04980
 Rotational constants (GHZ):           3.46793     1.06530     1.03764
 Zero-point vibrational energy     486256.4 (Joules/Mol)
                                  116.21808 (Kcal/Mol)
 Warning -- explicit consideration of  11 degrees of freedom as
           vibrations may cause significant error
 Vibrational temperatures:    111.84   196.38   229.47   313.01   434.31
          (Kelvin)            518.30   610.03   671.98   728.88   853.82
                              888.87  1078.96  1112.48  1182.05  1209.64
                             1246.43  1297.56  1346.88  1366.99  1413.40
                             1439.95  1459.06  1547.50  1555.70  1577.02
                             1602.09  1616.03  1687.29  1701.57  1764.05
                             1795.31  1809.92  1837.37  1850.05  1886.35
                             1897.03  1971.88  2063.39  2074.17  2146.55
                             2181.97  2201.01  2208.77  2230.40  2683.00
                             4350.44  4373.91  4382.89  4410.34  4422.68
                             4431.47  4474.45  4478.55  4483.97  4491.38
                             4530.45  4537.17

 Zero-point correction=                           0.185205 (Hartree/Particle)
 Thermal correction to Energy=                    0.193414
 Thermal correction to Enthalpy=                  0.194358
 Thermal correction to Gibbs Free Energy=         0.152271
 Sum of electronic and zero-point Energies=           -387.073940
 Sum of electronic and thermal Energies=              -387.065732
 Sum of electronic and thermal Enthalpies=            -387.064787
 Sum of electronic and thermal Free Energies=         -387.106875

                     E (Thermal)             CV                S
                      KCal/Mol        Cal/Mol-Kelvin    Cal/Mol-Kelvin
 Total                  121.369             32.142             88.581
 Electronic               0.000              0.000              0.000
 Translational            0.889              2.981             40.361
 Rotational               0.889              2.981             28.818
 Vibrational            119.592             26.181             19.402
 Vibration     1          0.599              1.964              3.947
 Vibration     2          0.614              1.917              2.853
 Vibration     3          0.621              1.892              2.556
 Vibration     4          0.646              1.814              1.979
 Vibration     5          0.694              1.670              1.407
 Vibration     6          0.735              1.554              1.121
 Vibration     7          0.786              1.418              0.879
 Vibration     8          0.824              1.323              0.746
 Vibration     9          0.862              1.235              0.642
 Vibration    10          0.951              1.046              0.461
 Vibration    11          0.978              0.994              0.420

 Normal termination of Gaussian 16 at Wed Feb 21 18:37:53 2024.
