 Gaussian 16, Revision A.03,
 Gaussian 16:  EM64M-G16RevA.03 25-Dec-2016

 ---------------------
 # freq b3lyp/6-31g(d)
 ---------------------

 ---------
 good luck
 ---------
 Symbolic Z-matrix:
 Charge =  0 Multiplicity = 1

                         Standard orientation:
 ---------------------------------------------------------------------
 Center     Atomic      Atomic             Coordinates (Angstroms)
 Number     Number       Type             X           Y           Z
 ---------------------------------------------------------------------
      1          6           0       -2.944994    0.925565   -0.117129
      2          6           0       -2.123593   -0.368989   -0.162696
      3          6           0       -0.642408   -0.121200   -0.450509
      4          6           0        0.244587    0.448165    0.727227
      5          6           0        0.403781   -1.036952    1.196125
      6          6           0        0.345790   -1.327736   -0.331084
      7          6           0        1.666175   -0.693830   -0.814091
      8          6           0        1.559782    0.629482   -0.016237
      9          8           0        2.326850    1.564053   -0.003142
     10          1           0       -2.859701    1.482785   -1.057868
     11          1           0       -2.606750    1.585486    0.690098
     12          1           0       -4.006783    0.712817    0.049401
     13          1           0       -2.259941   -0.919380    0.775732
     14          1           0       -2.516744   -1.020970   -0.955777
     15          1           0       -0.562056    0.442231   -1.391661
     16          1           0       -0.069262    1.260161    1.383875
     17          1           0        1.319575   -1.305174    1.735234
     18          1           0       -0.463483   -1.400150    1.749790
     19          1           0        0.086807   -2.316396   -0.718804
     20          1           0        2.562879   -1.257773   -0.531680
     21          1           0        1.705944   -0.503088   -1.892838
 ---------------------------------------------------------------------

 SCF Done:  E(RB3LYP) =  -387.259214708     A.U. after   13 cycles

 The electronic state is 1-A.
 Alpha  occ. eigenvalues --  -19.13383 -10.26906 -10.20430 -10.20368 -10.19991
 Alpha  occ. eigenvalues --  -10.19839 -10.19186 -10.19133 -10.18068  -1.03346
 Alpha  occ. eigenvalues --   -0.89917  -0.77780  -0.71795  -0.67652  -0.67144
 Alpha  occ. eigenvalues --   -0.60695  -0.54454  -0.52799  -0.50231  -0.46972
 Alpha  occ. eigenvalues --   -0.45509  -0.43785  -0.40938  -0.40080  -0.39388
 Alpha  occ. eigenvalues --   -0.39006  -0.37016  -0.36638  -0.35415  -0.33648
 Alpha  occ. eigenvalues --   -0.32320  -0.31336  -0.30637  -0.23088
 Alpha virt. eigenvalues --   -0.00472   0.08509   0.10187   0.10802   0.12724
 Alpha virt. eigenvalues --    0.13260   0.13816   0.14256   0.15011   0.15933
 Alpha virt. eigenvalues --    0.17301   0.18092   0.19901   0.20755   0.20946

 Mulliken charges:
               1
     1  C   -0.446216
     2  C   -0.265805
     3  C   -0.088604
     4  C   -0.167566
     5  C   -0.290602
     6  C   -0.125745
     7  C   -0.345836
     8  C    0.450268
     9  O   -0.455004
    10  H    0.146981
    11  H    0.149890
    12  H    0.146809
    13  H    0.136513
    14  H    0.139125
    15  H    0.127453
    16  H    0.133401
    17  H    0.145149
    18  H    0.154358
    19  H    0.125216
    20  H    0.164919
    21  H    0.165295
 Sum of Mulliken charges =  -0.00000

 Dipole moment (field-independent basis, Debye):
    X=             -2.2803    Y=             -2.3707    Z=             -0.0529  Tot=              3.2898
 Quadrupole moment (field-independent basis, Debye-Ang):
   XX=            -59.7226   YY=            -58.2783   ZZ=            -53.0503
   XY=             -6.1721   XZ=             -0.2135   YZ=             -0.0636

  Exact polarizability:  91.835   1.406  77.073  -1.210   0.535  71.282
 Approx polarizability: 119.967   9.506 117.014  -0.995   0.477 107.283

                      1                      2                      3
                      A                      A                      A
 Frequencies --     85.6030               114.3178               178.4111
 Red. masses --      2.0520                 5.1578                 2.5230
 Frc consts  --      0.0089                 0.0397                 0.0473
 IR Inten    --      0.0561                 2.4297                 1.0740

                      4                      5                      6
                      A                      A                      A
 Frequencies --    215.2977               298.9752               369.2764
 Red. masses --      1.3445                 1.8574                 3.1883
 Frc consts  --      0.0367                 0.0978                 0.2562
 IR Inten    --      0.5324                 0.2509                 0.3144

                      7                      8                      9
                      A                      A                      A
 Frequencies --    427.0366               449.8523               516.1465
 Red. masses --      3.2854                 2.1624                 2.9864
 Frc consts  --      0.3530                 0.2578                 0.4687
 IR Inten    --      2.3891                 1.6345                 4.8930

                     10                     11                     12
                      A                      A                      A
 Frequencies --    592.5536               612.4831               751.1928
 Red. masses --      4.2795                 2.4642                 1.5449
 Frc consts  --      0.8853                 0.5446                 0.5136
 IR Inten    --      2.9355                 1.4376                 3.1158

                     13                     14                     15
                      A                      A                      A
 Frequencies --    768.4768               819.0483               842.8635
 Red. masses --      3.0148                 3.0567                 2.4019
 Frc consts  --      1.0490                 1.2081                 1.0053
 IR Inten    --      8.9493                11.4502                 1.3624

                     16                     17                     18
                      A                      A                      A
 Frequencies --    867.2588               902.9519               937.0920
 Red. masses --      1.7022                 1.9832                 2.3776
 Frc consts  --      0.7543                 0.9527                 1.2302
 IR Inten    --      1.1042                 2.0295                 4.3561

                     19                     20                     21
                      A                      A                      A
 Frequencies --    948.3806               984.1544              1006.1644
 Red. masses --      2.1080                 1.6738                 3.1308
 Frc consts  --      1.1171                 0.9552                 1.8674
 IR Inten    --      2.1130                 3.1914                 8.0470

                     22                     23                     24
                      A                      A                      A
 Frequencies --   1014.0470              1077.0204              1082.4907
 Red. masses --      1.5419                 1.5941                 1.6420
 Frc consts  --      0.9342                 1.0894                 1.1337
 IR Inten    --      4.3565                 1.6560                 4.5251

                     25                     26                     27
                      A                      A                      A
 Frequencies --   1098.7636              1106.5145              1123.2982
 Red. masses --      1.4269                 1.3707                 1.5711
 Frc consts  --      1.0150                 0.9888                 1.1680
 IR Inten    --      2.2773                 7.2125                 5.1028

                     28                     29                     30
                      A                      A                      A
 Frequencies --   1176.2307              1184.9084              1222.8519
 Red. masses --      1.9451                 1.6191                 1.5527
 Frc consts  --      1.5856                 1.3393                 1.3680
 IR Inten    --     15.7909                 1.1829                 4.8371

                     31                     32                     33
                      A                      A                      A
 Frequencies --   1247.2056              1256.3199              1276.9623
 Red. masses --      1.9111                 1.4971                 1.6712
 Frc consts  --      1.7515                 1.3922                 1.6056
 IR Inten    --      2.8662                 0.8780                 1.4136

                     34                     35                     36
                      A                      A                      A
 Frequencies --   1285.1597              1307.5278              1322.1153
 Red. masses --      1.6533                 1.3702                 1.4157
 Frc consts  --      1.6088                 1.3802                 1.4581
 IR Inten    --      3.7542                 7.5422                 4.7373

                     37                     38                     39
                      A                      A                      A
 Frequencies --   1368.6475              1435.0653              1442.8364
 Red. masses --      1.3858                 1.4092                 1.2315
 Frc consts  --      1.5295                 1.7099                 1.5105
 IR Inten    --      7.3467                 1.8858                 2.3576

                     40                     41                     42
                      A                      A                      A
 Frequencies --   1491.8348              1515.1701              1529.9722
 Red. masses --      1.0963                 1.0701                 1.0414
 Frc consts  --      1.4375                 1.4474                 1.4363
 IR Inten    --      4.4155                 0.1965                 6.4415

                     43                     44                     45
                      A                      A                      A
 Frequencies --   1534.9892              1549.7896              1864.6883
 Red. masses --      1.0675                 1.0994                12.3150
 Frc consts  --      1.4819                 1.5558                25.2288
 IR Inten    --      3.2762                 4.0706               285.1375

                     46                     47                     48
                      A                      A                      A
 Frequencies --   3023.7976              3033.3215              3047.0801
 Red. masses --      1.0844                 1.0660                 1.0360
 Frc consts  --      5.8418                 5.7789                 5.6673
 IR Inten    --     27.3308                28.2204                28.4994

                     49                     50                     51
                      A                      A                      A
 Frequencies --   3065.3324              3073.1684              3078.9441
 Red. masses --      1.0595                 1.0767                 1.0838
 Frc consts  --      5.8657                 5.9914                 6.0534
 IR Inten    --     16.8997                 4.5455                47.1148

                     52                     53                     54
                      A                      A                      A
 Frequencies --   3110.0091              3113.8377              3116.8078
 Red. masses --      1.1054                 1.1024                 1.0958
 Frc consts  --      6.2990                 6.2979                 6.2718
 IR Inten    --     13.3075                49.5043                21.6955

                     55                     56                     57
                      A                      A                      A
 Frequencies --   3117.7914              3149.3736              3155.5442
 Red. masses --      1.0968                 1.0991                 1.0916
 Frc consts  --      6.2814                 6.4229                 6.4042
 IR Inten    --     57.6108                24.8054                27.4449

 - Thermochemistry -
 -------------------
 Temperature   298.150 Kelvin.  Pressure   1.00000 Atm.
 Atom     1 has atomic number  6 and mass  12.00000

 Molecular mass:   124.08882 amu.
 Principal axes and moments of inertia in atomic units:
                           1         2         3
     Eigenvalues --   609.733681514.476751743.85409
           X            0.99889  -0.04709  -0.00223
           Y            0.04707   0.99887  -0.00683
           Z            0.00255   0.00671   0.99997
 This molecule is an asymmetric top.
 Rotational symmetry number  1.
 Warning -- assumption of classical behavior for rotation
           may cause significant error
 Rotational temperatures (Kelvin)      0.14205     0.05719     0.04967
 Rotational constants (GHZ):           2.95988     1.19166     1.03492
 Zero-point vibrational energy     486204.0 (Joules/Mol)
                                  116.20553 (Kcal/Mol)
 Warning -- explicit consideration of  11 degrees of freedom as
           vibrations may cause significant error
 Vibrational temperatures:    123.16   164.48   256.69   309.77   430.16
          (Kelvin)            531.31   614.41   647.24   742.62   852.55
                              881.23  1080.80  1105.67  1178.43  1212.69
                             1247.79  1299.15  1348.27  1364.51  1415.98
                             1447.65  1458.99  1549.59  1557.46  1580.88
                             1592.03  1616.18  1692.33  1704.82  1759.41
                             1794.45  1807.56  1837.26  1849.06  1881.24
                             1902.23  1969.18  2064.74  2075.92  2146.42
                             2179.99  2201.29  2208.51  2229.80  2682.87
                             4350.57  4364.27  4384.07  4410.33  4421.60
                             4429.91  4474.61  4480.12  4484.39  4485.81
                             4531.25  4540.12

 Zero-point correction=                           0.185185 (Hartree/Particle)
 Thermal correction to Energy=                    0.193393
 Thermal correction to Enthalpy=                  0.194337
 Thermal correction to Gibbs Free Energy=         0.152242
 Sum of electronic and zero-point Energies=           -387.074029
 Sum of electronic and thermal Energies=              -387.065822
 Sum of electronic and thermal Enthalpies=            -387.064878
 Sum of electronic and thermal Free Energies=         -387.106973

                     E (Thermal)             CV                S
                      KCal/Mol        Cal/Mol-Kelvin    Cal/Mol-Kelvin
 Total                  121.356             32.146             88.596
 Electronic               0.000              0.000              0.000
 Translational            0.889              2.981             40.361
 Rotational               0.889              2.981             28.867
 Vibrational            119.578             26.185             19.368
 Vibration     1          0.601              1.959              3.758
 Vibration     2          0.607              1.938              3.194
 Vibration     3          0.629              1.869              2.345
 Vibration     4          0.645              1.818              1.998
 Vibration     5          0.692              1.676              1.423
 Vibration     6          0.742              1.535              1.083
 Vibration     7          0.789              1.411              0.868
 Vibration     8          0.809              1.361              0.796
 Vibration     9          0.871              1.214              0.619
 Vibration    10          0.950              1.048              0.463
 Vibration    11          0.972              1.005              0.429

 Normal termination of Gaussian 16 at Wed Feb 21 18:36:29 2024.
