 Gaussian 16, Revision A.03,
 Gaussian 16:  EM64M-G16RevA.03 25-Dec-2016

 ---------------------
 # freq b3lyp/6-31g(d)
 ---------------------

 ---------
 good luck
 ---------
 Symbolic Z-matrix:
 Charge =  0 Multiplicity = 1

                         Standard orientation:
 ---------------------------------------------------------------------
 Center     Atomic      Atomic             Coordinates (Angstroms)
 Number     Number       Type             X           Y           Z
 ---------------------------------------------------------------------
      1          8           0       -0.228747   -1.965703   -0.095750
      2          6           0       -0.198114   -0.754448   -0.165266
      3          6           0        1.074716    0.103445    0.012588
      4          6           0        2.206516   -0.413613   -0.885684
      5          6           0        1.493981   -0.000402    1.496829
      6          6           0        0.587820    1.530332   -0.340175
      7          6           0       -0.918863    1.544336   -0.000906
      8          6           0       -1.412865    0.148431   -0.421182
      9          6           0       -2.700128   -0.366534    0.220766
     10          1           0        2.418339   -1.464594   -0.663615
     11          1           0        1.939685   -0.340181   -1.946647
     12          1           0        3.123259    0.167060   -0.727803
     13          1           0        1.682085   -1.044655    1.766383
     14          1           0        2.410760    0.575827    1.669435
     15          1           0        0.721960    0.387482    2.171658
     16          1           0        1.149186    2.308037    0.189296
     17          1           0        0.722119    1.711056   -1.415187
     18          1           0       -1.067871    1.678743    1.079004
     19          1           0       -1.456460    2.355746   -0.502137
     20          1           0       -1.537913    0.145000   -1.517919
     21          1           0       -2.633813   -0.326633    1.314545
     22          1           0       -3.564542    0.231616   -0.087358
     23          1           0       -2.875200   -1.408157   -0.065476
 ---------------------------------------------------------------------

 SCF Done:  E(RB3LYP) =  -388.518532854     A.U. after   13 cycles

 The electronic state is 1-A.
 Alpha  occ. eigenvalues --  -19.13581 -10.26315 -10.20017 -10.19538 -10.18865
 Alpha  occ. eigenvalues --  -10.18635 -10.18177 -10.17780 -10.17695  -1.03432
 Alpha  occ. eigenvalues --   -0.84676  -0.78272  -0.72122  -0.68829  -0.65195
 Alpha  occ. eigenvalues --   -0.63421  -0.56809  -0.50126  -0.48291  -0.46010
 Alpha  occ. eigenvalues --   -0.43492  -0.43236  -0.42784  -0.41172  -0.40642
 Alpha  occ. eigenvalues --   -0.38629  -0.37331  -0.36592  -0.36243  -0.35831
 Alpha  occ. eigenvalues --   -0.33507  -0.32606  -0.32402  -0.32003  -0.23199
 Alpha virt. eigenvalues --   -0.01437   0.07808   0.10774   0.11132   0.12718
 Alpha virt. eigenvalues --    0.14013   0.15084   0.15768   0.16849   0.17134
 Alpha virt. eigenvalues --    0.17445   0.17881   0.19477   0.20451   0.20695

 Mulliken charges:
               1
     1  O   -0.470542
     2  C    0.447825
     3  C    0.035693
     4  C   -0.452150
     5  C   -0.457350
     6  C   -0.292511
     7  C   -0.286235
     8  C   -0.160910
     9  C   -0.445628
    10  H    0.166155
    11  H    0.140722
    12  H    0.142197
    13  H    0.167086
    14  H    0.147312
    15  H    0.144980
    16  H    0.139414
    17  H    0.136071
    18  H    0.140757
    19  H    0.141707
    20  H    0.156831
    21  H    0.145131
    22  H    0.143547
    23  H    0.169897
 Sum of Mulliken charges =  -0.00000

 Dipole moment (field-independent basis, Debye):
    X=              0.0938    Y=              2.5757    Z=             -0.1232  Tot=              2.5804
 Quadrupole moment (field-independent basis, Debye-Ang):
   XX=            -54.3847   YY=            -62.3546   ZZ=            -54.7294
   XY=             -0.7465   XZ=              0.6804   YZ=             -0.2423

  Exact polarizability:  90.965  -0.188  82.029   0.882  -0.544  73.058
 Approx polarizability: 113.204   0.533 124.783   2.085  -0.974 107.439

                      1                      2                      3
                      A                      A                      A
 Frequencies --     53.4695               170.9890               197.3302
 Red. masses --      3.6080                 2.2450                 1.3661
 Frc consts  --      0.0061                 0.0387                 0.0313
 IR Inten    --      1.8031                 0.6392                 1.0652

                      4                      5                      6
                      A                      A                      A
 Frequencies --    210.3942               223.2742               235.5598
 Red. masses --      1.2574                 1.4801                 1.8145
 Frc consts  --      0.0328                 0.0435                 0.0593
 IR Inten    --      0.3769                 0.8500                 1.8131

                      7                      8                      9
                      A                      A                      A
 Frequencies --    266.4095               295.6764               340.0296
 Red. masses --      1.2799                 3.0109                 2.4491
 Frc consts  --      0.0535                 0.1551                 0.1668
 IR Inten    --      2.1094                 4.1544                 1.2505

                     10                     11                     12
                      A                      A                      A
 Frequencies --    358.0843               391.3268               507.8356
 Red. masses --      2.1851                 2.1372                 3.4016
 Frc consts  --      0.1651                 0.1928                 0.5169
 IR Inten    --      0.5607                 0.2280                 4.2195

                     13                     14                     15
                      A                      A                      A
 Frequencies --    532.9144               579.1478               669.8642
 Red. masses --      3.5469                 2.8650                 4.7630
 Frc consts  --      0.5935                 0.5662                 1.2592
 IR Inten    --      2.1271                 0.7520                 0.3272

                     16                     17                     18
                      A                      A                      A
 Frequencies --    735.7143               805.5643               870.0947
 Red. masses --      2.6361                 2.1009                 2.0826
 Frc consts  --      0.8407                 0.8033                 0.9289
 IR Inten    --      2.0439                 1.5398                 1.4886

                     19                     20                     21
                      A                      A                      A
 Frequencies --    912.5562               943.9974               966.0108
 Red. masses --      2.3504                 1.6646                 1.7265
 Frc consts  --      1.1532                 0.8740                 0.9492
 IR Inten    --     12.5981                 4.5456                 0.2331

                     22                     23                     24
                      A                      A                      A
 Frequencies --    969.0579               984.8896              1014.3747
 Red. masses --      1.3776                 2.0494                 1.3965
 Frc consts  --      0.7622                 1.1712                 0.8466
 IR Inten    --      0.3325                 8.1571                10.4799

                     25                     26                     27
                      A                      A                      A
 Frequencies --   1026.8365              1077.4093              1106.8661
 Red. masses --      1.5400                 1.5043                 1.7991
 Frc consts  --      0.9567                 1.0288                 1.2987
 IR Inten    --     22.7520                 0.7894                20.4495

                     28                     29                     30
                      A                      A                      A
 Frequencies --   1136.6233              1170.7229              1214.5551
 Red. masses --      1.9823                 2.0079                 1.8514
 Frc consts  --      1.5089                 1.6214                 1.6091
 IR Inten    --     12.3581                 6.3630                 6.5118

                     31                     32                     33
                      A                      A                      A
 Frequencies --   1251.0609              1255.1663              1284.0758
 Red. masses --      2.2553                 2.2242                 1.9098
 Frc consts  --      2.0798                 2.0646                 1.8553
 IR Inten    --      1.2041                 3.9041                 5.7623

                     34                     35                     36
                      A                      A                      A
 Frequencies --   1321.1600              1326.5551              1359.7800
 Red. masses --      1.5017                 1.3823                 1.4094
 Frc consts  --      1.5444                 1.4332                 1.5354
 IR Inten    --      2.4816                 2.0682                 1.2141

                     37                     38                     39
                      A                      A                      A
 Frequencies --   1376.5427              1420.2667              1434.1863
 Red. masses --      1.7530                 1.2200                 1.2268
 Frc consts  --      1.9571                 1.4499                 1.4868
 IR Inten    --      7.6177                 4.0567                 3.4100

                     40                     41                     42
                      A                      A                      A
 Frequencies --   1442.2768              1510.7589              1517.9930
 Red. masses --      1.2172                 1.0566                 1.0519
 Frc consts  --      1.4918                 1.4208                 1.4281
 IR Inten    --      4.8101                 0.5014                 0.8702

                     43                     44                     45
                      A                      A                      A
 Frequencies --   1524.1508              1526.8189              1528.3482
 Red. masses --      1.0593                 1.0555                 1.0493
 Frc consts  --      1.4499                 1.4497                 1.4441
 IR Inten    --      2.5103                12.1143                 2.9354

                     46                     47                     48
                      A                      A                      A
 Frequencies --   1530.9123              1534.7581              1541.4327
 Red. masses --      1.0786                 1.0655                 1.0644
 Frc consts  --      1.4894                 1.4787                 1.4901
 IR Inten    --      4.4686                 8.5339                 6.2133

                     49                     50                     51
                      A                      A                      A
 Frequencies --   1828.6093              2986.1231              3039.4709
 Red. masses --     12.4028                 1.0810                 1.0635
 Frc consts  --     24.4349                 5.6791                 5.7889
 IR Inten    --    141.8126                10.1337                13.4612

                     52                     53                     54
                      A                      A                      A
 Frequencies --   3043.0033              3046.8276              3048.3623
 Red. masses --      1.0396                 1.0551                 1.0416
 Frc consts  --      5.6718                 5.7709                 5.7027
 IR Inten    --      9.3287                36.3479                34.9855

                     55                     56                     57
                      A                      A                      A
 Frequencies --   3052.3384              3094.4679              3103.4341
 Red. masses --      1.0387                 1.0971                 1.1009
 Frc consts  --      5.7019                 6.1896                 6.2474
 IR Inten    --     36.3454                27.5899                22.6349

                     58                     59                     60
                      A                      A                      A
 Frequencies --   3107.9841              3110.7158              3115.7371
 Red. masses --      1.1028                 1.1020                 1.1021
 Frc consts  --      6.2764                 6.2829                 6.3038
 IR Inten    --     32.3024                40.6938                37.9143

                     61                     62                     63
                      A                      A                      A
 Frequencies --   3126.4615              3130.5287              3134.6176
 Red. masses --      1.1024                 1.1017                 1.1020
 Frc consts  --      6.3486                 6.3612                 6.3799
 IR Inten    --      4.8278                28.5020                15.9792

 - Thermochemistry -
 -------------------
 Temperature   298.150 Kelvin.  Pressure   1.00000 Atm.
 Atom     1 has atomic number  8 and mass  15.99491

 Molecular mass:   126.10447 amu.
 Principal axes and moments of inertia in atomic units:
                           1         2         3
     Eigenvalues --   771.207511265.691761580.37156
           X            0.99995  -0.00864  -0.00406
           Y            0.00863   0.99995  -0.00460
           Z            0.00410   0.00456   0.99998
 This molecule is an asymmetric top.
 Rotational symmetry number  1.
 Warning -- assumption of classical behavior for rotation
           may cause significant error
 Rotational temperatures (Kelvin)      0.11231     0.06843     0.05481
 Rotational constants (GHZ):           2.34015     1.42589     1.14197
 Zero-point vibrational energy     542042.9 (Joules/Mol)
                                  129.55137 (Kcal/Mol)
 Warning -- explicit consideration of  14 degrees of freedom as
           vibrations may cause significant error
 Vibrational temperatures:     76.93   246.02   283.91   302.71   321.24
          (Kelvin)            338.92   383.30   425.41   489.23   515.20
                              563.03   730.66   766.74   833.26   963.79
                             1058.53  1159.03  1251.87  1312.96  1358.20
                             1389.87  1394.26  1417.04  1459.46  1477.39
                             1550.15  1592.53  1635.35  1684.41  1747.47
                             1800.00  1805.90  1847.50  1900.85  1908.62
                             1956.42  1980.54  2043.45  2063.47  2075.11
                             2173.65  2184.05  2192.91  2196.75  2198.95
                             2202.64  2208.17  2217.78  2630.96  4296.37
                             4373.12  4378.20  4383.71  4385.91  4391.63
                             4452.25  4465.15  4471.70  4475.63  4482.85
                             4498.28  4504.13  4510.02

 Zero-point correction=                           0.206453 (Hartree/Particle)
 Thermal correction to Energy=                    0.216276
 Thermal correction to Enthalpy=                  0.217220
 Thermal correction to Gibbs Free Energy=         0.172221
 Sum of electronic and zero-point Energies=           -388.312080
 Sum of electronic and thermal Energies=              -388.302257
 Sum of electronic and thermal Enthalpies=            -388.301313
 Sum of electronic and thermal Free Energies=         -388.346312

                     E (Thermal)             CV                S
                      KCal/Mol        Cal/Mol-Kelvin    Cal/Mol-Kelvin
 Total                  135.715             37.425             94.708
 Electronic               0.000              0.000              0.000
 Translational            0.889              2.981             40.409
 Rotational               0.889              2.981             28.824
 Vibrational            133.938             31.463             25.474
 Vibration     1          0.596              1.976              4.685
 Vibration     2          0.626              1.878              2.425
 Vibration     3          0.637              1.844              2.158
 Vibration     4          0.643              1.825              2.040
 Vibration     5          0.649              1.806              1.932
 Vibration     6          0.655              1.786              1.836
 Vibration     7          0.672              1.735              1.619
 Vibration     8          0.690              1.682              1.441
 Vibration     9          0.720              1.595              1.212
 Vibration    10          0.733              1.559              1.130
 Vibration    11          0.759              1.489              0.995
 Vibration    12          0.863              1.233              0.639
 Vibration    13          0.888              1.177              0.581
 Vibration    14          0.936              1.076              0.487

 Normal termination of Gaussian 16 at Wed Feb 21 18:49:46 2024.
