 Gaussian 16, Revision A.03,
 Gaussian 16:  EM64M-G16RevA.03 25-Dec-2016

 ---------------------
 # freq b3lyp/6-31g(d)
 ---------------------

 ---------
 good luck
 ---------
 Symbolic Z-matrix:
 Charge =  0 Multiplicity = 1

                         Standard orientation:
 ---------------------------------------------------------------------
 Center     Atomic      Atomic             Coordinates (Angstroms)
 Number     Number       Type             X           Y           Z
 ---------------------------------------------------------------------
      1          8           0       -2.955365   -1.890552   -0.000332
      2          6           0       -2.124170   -1.001993   -0.000163
      3          6           0       -1.539912   -0.383354    1.263241
      4          6           0       -0.003459   -0.587911    1.258164
      5          6           0       -1.853334    1.132077    1.256586
      6          6           0       -1.235690    1.772782    0.000500
      7          6           0       -1.853129    1.133182   -1.256636
      8          6           0       -1.540484   -0.381693   -1.263546
      9          6           0       -0.006715   -0.605811   -1.247307
     10          6           0        0.659302    0.043596    0.000029
     11          6           0        2.234877   -0.178946   -0.000251
     12          6           0        2.600145   -1.663751   -0.236162
     13          6           0        2.867663    0.242812    1.347079
     14          6           0        2.924530    0.647267   -1.111635
     15          6           0        0.291953    1.555325   -0.009683
     16          1           0       -1.988950   -0.876120    2.131851
     17          1           0        0.218212   -1.660689    1.312658
     18          1           0        0.399441   -0.134050    2.170992
     19          1           0       -1.441220    1.591885    2.165278
     20          1           0       -2.938743    1.296263    1.277700
     21          1           0       -1.443019    2.851014    0.000949
     22          1           0       -2.938683    1.296377   -1.278835
     23          1           0       -1.440362    1.594714   -2.164152
     24          1           0       -1.989611   -0.874487   -2.132108
     25          1           0        0.415831   -0.190626   -2.171146
     26          1           0        0.189185   -1.683591   -1.266044
     27          1           0        2.362747   -1.992761   -1.252933
     28          1           0        3.678494   -1.803551   -0.095568
     29          1           0        2.092997   -2.336403    0.463999
     30          1           0        3.960594    0.205914    1.267542
     31          1           0        2.581633   -0.424933    2.166149
     32          1           0        2.598519    1.265285    1.633664
     33          1           0        2.881178    1.723470   -0.915727
     34          1           0        3.984285    0.372133   -1.169890
     35          1           0        2.488409    0.465200   -2.099929
     36          1           0        0.707621    2.038166   -0.901705
     37          1           0        0.734897    2.059708    0.858616
 ---------------------------------------------------------------------

 SCF Done:  E(RB3LYP) =  -621.980097438     A.U. after   14 cycles

 The electronic state is 1-A.
 Alpha  occ. eigenvalues --  -19.12829 -10.25891 -10.20251 -10.20132 -10.19236
 Alpha  occ. eigenvalues --  -10.18990 -10.18982 -10.18821 -10.18808 -10.18640
 Alpha  occ. eigenvalues --  -10.18639 -10.18136 -10.17429 -10.17426 -10.17362
 Alpha  occ. eigenvalues --   -1.02631  -0.87403  -0.81805  -0.77705  -0.76572
 Alpha  occ. eigenvalues --   -0.74678  -0.68929  -0.68569  -0.66932  -0.64265
 Alpha  occ. eigenvalues --   -0.59944  -0.59839  -0.57188  -0.53358  -0.50321
 Alpha  occ. eigenvalues --   -0.46093  -0.46015  -0.45394  -0.44508  -0.44138
 Alpha  occ. eigenvalues --   -0.43649  -0.43064  -0.42751  -0.41426  -0.41121
 Alpha  occ. eigenvalues --   -0.40112  -0.39384  -0.37479  -0.37176  -0.37109
 Alpha  occ. eigenvalues --   -0.36175  -0.35534  -0.34620  -0.34613  -0.33709
 Alpha  occ. eigenvalues --   -0.33225  -0.32265  -0.32074  -0.29348  -0.28689
 Alpha  occ. eigenvalues --   -0.28457  -0.22571
 Alpha virt. eigenvalues --   -0.00557   0.06334   0.09688   0.10896   0.11185
 Alpha virt. eigenvalues --    0.12021   0.12440   0.12599   0.13370   0.13865
 Alpha virt. eigenvalues --    0.14077   0.14881   0.16135   0.16533   0.17762

 Mulliken charges:
               1
     1  O   -0.462662
     2  C    0.455092
     3  C   -0.168363
     4  C   -0.306176
     5  C   -0.278739
     6  C   -0.096270
     7  C   -0.278577
     8  C   -0.167748
     9  C   -0.307850
    10  C    0.100374
    11  C    0.107607
    12  C   -0.463944
    13  C   -0.463074
    14  C   -0.462362
    15  C   -0.291796
    16  H    0.140199
    17  H    0.144039
    18  H    0.140972
    19  H    0.135567
    20  H    0.142825
    21  H    0.123680
    22  H    0.142733
    23  H    0.135512
    24  H    0.140174
    25  H    0.137173
    26  H    0.148814
    27  H    0.146544
    28  H    0.140079
    29  H    0.144745
    30  H    0.140125
    31  H    0.146155
    32  H    0.142224
    33  H    0.145426
    34  H    0.140174
    35  H    0.142124
    36  H    0.134760
    37  H    0.130444
 Sum of Mulliken charges =  -0.00000

 Dipole moment (field-independent basis, Debye):
    X=              2.3584    Y=              2.3189    Z=              0.0029  Tot=              3.3075
 Quadrupole moment (field-independent basis, Debye-Ang):
   XX=           -101.5208   YY=            -97.3494   ZZ=            -91.0022
   XY=             -8.7242   XZ=             -0.0027   YZ=              0.0013

  Exact polarizability: 153.456   1.826 129.977   0.020   0.001 127.298
 Approx polarizability: 205.417  11.166 201.019   0.026   0.023 193.407

                      1                      2                      3
                      A                      A                      A
 Frequencies --     64.2049                87.6256               174.5345
 Red. masses --      2.6635                 8.4229                 2.6707
 Frc consts  --      0.0065                 0.0381                 0.0479
 IR Inten    --      0.1517                 3.2342                 0.0675

                      4                      5                      6
                      A                      A                      A
 Frequencies --    204.9480               243.8602               266.5209
 Red. masses --      2.6584                 1.1095                 2.2147
 Frc consts  --      0.0658                 0.0389                 0.0927
 IR Inten    --      0.1899                 0.0542                 0.5852

                      7                      8                      9
                      A                      A                      A
 Frequencies --    270.5000               274.7477               306.4341
 Red. masses --      1.2288                 1.2632                 2.1209
 Frc consts  --      0.0530                 0.0562                 0.1173
 IR Inten    --      0.0254                 0.0583                 0.1467

                     10                     11                     12
                      A                      A                      A
 Frequencies --    315.7495               337.0633               352.1270
 Red. masses --      2.8719                 2.0366                 2.2198
 Frc consts  --      0.1687                 0.1363                 0.1622
 IR Inten    --      0.2180                 0.0764                 0.1843

                     13                     14                     15
                      A                      A                      A
 Frequencies --    372.8919               388.9841               393.3987
 Red. masses --      4.1944                 2.0729                 3.5948
 Frc consts  --      0.3436                 0.1848                 0.3278
 IR Inten    --      0.6626                 0.1082                 0.0697

                     16                     17                     18
                      A                      A                      A
 Frequencies --    426.0200               436.6915               452.6116
 Red. masses --      1.9837                 1.8897                 2.8751
 Frc consts  --      0.2121                 0.2123                 0.3470
 IR Inten    --      0.0816                 0.3273                 4.2251

                     19                     20                     21
                      A                      A                      A
 Frequencies --    461.6572               482.5732               536.7783
 Red. masses --      2.5059                 3.3412                 2.4870
 Frc consts  --      0.3147                 0.4584                 0.4222
 IR Inten    --      0.1331                 6.9469                 0.1261

                     22                     23                     24
                      A                      A                      A
 Frequencies --    617.9661               637.2586               676.1208
 Red. masses --      5.4135                 3.6249                 4.3847
 Frc consts  --      1.2180                 0.8673                 1.1810
 IR Inten    --      0.2416                 1.3949                 0.1757

                     25                     26                     27
                      A                      A                      A
 Frequencies --    720.6821               785.8092               799.5245
 Red. masses --      3.9959                 3.7491                 3.1981
 Frc consts  --      1.2228                 1.3640                 1.2045
 IR Inten    --      1.7949                 0.4725                 0.2062

                     28                     29                     30
                      A                      A                      A
 Frequencies --    812.5510               861.9424               890.8442
 Red. masses --      2.6867                 2.6909                 2.4434
 Frc consts  --      1.0451                 1.1779                 1.1425
 IR Inten    --      0.9208                 0.7434                 3.8353

                     31                     32                     33
                      A                      A                      A
 Frequencies --    895.3865               901.6619               916.1590
 Red. masses --      1.7279                 1.6210                 2.4565
 Frc consts  --      0.8162                 0.7765                 1.2148
 IR Inten    --      3.4507                 0.0569                 4.3139

                     34                     35                     36
                      A                      A                      A
 Frequencies --    938.9925               940.5915               952.5600
 Red. masses --      1.9723                 1.7988                 1.9814
 Frc consts  --      1.0246                 0.9376                 1.0593
 IR Inten    --      0.4137                 1.1741                 0.3598

                     37                     38                     39
                      A                      A                      A
 Frequencies --    971.0056               971.9259               989.1413
 Red. masses --      1.6094                 1.4962                 2.2829
 Frc consts  --      0.8940                 0.8327                 1.3160
 IR Inten    --      0.4013                 0.3642                 1.9298

                     40                     41                     42
                      A                      A                      A
 Frequencies --   1012.5197              1044.7948              1051.9450
 Red. masses --      1.9541                 1.7001                 1.5556
 Frc consts  --      1.1803                 1.0934                 1.0142
 IR Inten    --      1.8443                 0.2469                 2.0498

                     43                     44                     45
                      A                      A                      A
 Frequencies --   1061.6527              1079.7419              1082.1500
 Red. masses --      1.7997                 2.4557                 2.8159
 Frc consts  --      1.1951                 1.6868                 1.9429
 IR Inten    --      0.0361                 4.7904                 1.7076

                     46                     47                     48
                      A                      A                      A
 Frequencies --   1083.8525              1102.7073              1129.4455
 Red. masses --      1.6903                 1.7408                 1.4568
 Frc consts  --      1.1699                 1.2471                 1.0950
 IR Inten    --     23.0947                 0.4717                 0.7327

                     49                     50                     51
                      A                      A                      A
 Frequencies --   1141.9319              1168.9318              1205.0806
 Red. masses --      1.3195                 1.1069                 1.2491
 Frc consts  --      1.0138                 0.8911                 1.0687
 IR Inten    --      0.0048                 0.3828                 0.3762

                     52                     53                     54
                      A                      A                      A
 Frequencies --   1224.7045              1245.2093              1258.3234
 Red. masses --      1.9363                 1.7234                 1.9996
 Frc consts  --      1.7112                 1.5745                 1.8654
 IR Inten    --      0.2372                 2.1885                14.2092

                     55                     56                     57
                      A                      A                      A
 Frequencies --   1259.8587              1276.5383              1289.2424
 Red. masses --      2.4267                 1.6309                 2.0522
 Frc consts  --      2.2694                 1.5659                 2.0097
 IR Inten    --     21.0210                 0.6845                 0.9394

                     58                     59                     60
                      A                      A                      A
 Frequencies --   1305.4462              1308.4154              1334.1812
 Red. masses --      1.6184                 1.5134                 1.5848
 Frc consts  --      1.6250                 1.5265                 1.6620
 IR Inten    --      0.1893                 0.0155                 4.9885

                     61                     62                     63
                      A                      A                      A
 Frequencies --   1339.1943              1355.3032              1363.6748
 Red. masses --      1.7168                 1.4446                 1.4195
 Frc consts  --      1.8141                 1.5634                 1.5553
 IR Inten    --      2.3024                 0.4566                 0.8668

                     64                     65                     66
                      A                      A                      A
 Frequencies --   1382.6804              1389.7687              1399.3637
 Red. masses --      1.6712                 1.4449                 1.5057
 Frc consts  --      1.8825                 1.6443                 1.7372
 IR Inten    --      4.3847                 1.0370                 1.0303

                     67                     68                     69
                      A                      A                      A
 Frequencies --   1401.4922              1413.8641              1432.3891
 Red. masses --      1.5503                 1.4121                 1.2265
 Frc consts  --      1.7941                 1.6632                 1.4826
 IR Inten    --      1.1347                 0.5316                 5.8473

                     70                     71                     72
                      A                      A                      A
 Frequencies --   1433.2354              1462.9184              1509.3297
 Red. masses --      1.2241                 1.2135                 1.0835
 Frc consts  --      1.4815                 1.5301                 1.4543
 IR Inten    --      6.7953                 9.8285                 0.1724

                     73                     74                     75
                      A                      A                      A
 Frequencies --   1513.3064              1516.7861              1520.1840
 Red. masses --      1.0813                 1.0615                 1.0615
 Frc consts  --      1.4589                 1.4389                 1.4453
 IR Inten    --      1.8219                 0.4089                 1.6867

                     76                     77                     78
                      A                      A                      A
 Frequencies --   1521.9486              1524.3913              1527.1758
 Red. masses --      1.0508                 1.0750                 1.0842
 Frc consts  --      1.4340                 1.4718                 1.4899
 IR Inten    --      1.2969                 8.3376                 4.4691

                     79                     80                     81
                      A                      A                      A
 Frequencies --   1543.8636              1544.5518              1544.8479
 Red. masses --      1.0776                 1.0539                 1.0580
 Frc consts  --      1.5133                 1.4813                 1.4877
 IR Inten    --      1.6816                 2.7954                 2.5181

                     82                     83                     84
                      A                      A                      A
 Frequencies --   1551.3616              1819.9590              3030.0440
 Red. masses --      1.0564                11.1951                 1.0672
 Frc consts  --      1.4980                21.8475                 5.7729
 IR Inten    --     11.8876               230.4168                 4.1449

                     85                     86                     87
                      A                      A                      A
 Frequencies --   3031.6855              3039.0560              3044.4384
 Red. masses --      1.0597                 1.0634                 1.0524
 Frc consts  --      5.7383                 5.7865                 5.7468
 IR Inten    --     36.8127                19.1211                 5.5401

                     88                     89                     90
                      A                      A                      A
 Frequencies --   3047.5078              3048.6423              3049.8625
 Red. masses --      1.0466                 1.0464                 1.0484
 Frc consts  --      5.7268                 5.7302                 5.7456
 IR Inten    --     11.0338                18.5182                32.4016

                     91                     92                     93
                      A                      A                      A
 Frequencies --   3052.8102              3060.7282              3069.2379
 Red. masses --      1.0649                 1.0492                 1.1052
 Frc consts  --      5.8474                 5.7909                 6.1340
 IR Inten    --     82.2878                50.9857                 6.6309

                     94                     95                     96
                      A                      A                      A
 Frequencies --   3073.5013              3084.7700              3085.3394
 Red. masses --      1.1038                 1.0941                 1.0937
 Frc consts  --      6.1435                 6.1344                 6.1344
 IR Inten    --     63.2979                 8.9304                67.0505

                     97                     98                     99
                      A                      A                      A
 Frequencies --   3087.2505              3089.7929              3092.8609
 Red. masses --      1.0877                 1.1033                 1.1013
 Frc consts  --      6.1082                 6.2061                 6.2072
 IR Inten    --     14.2147                23.6417                33.8404

                    100                    101                    102
                      A                      A                      A
 Frequencies --   3108.4049              3109.2387              3115.1305
 Red. masses --      1.1003                 1.1000                 1.0996
 Frc consts  --      6.2640                 6.2654                 6.2867
 IR Inten    --     21.8177                23.3253                86.1593

                    103                    104                    105
                      A                      A                      A
 Frequencies --   3123.0016              3125.8857              3126.4511
 Red. masses --      1.1028                 1.1010                 1.1010
 Frc consts  --      6.3369                 6.3387                 6.3410
 IR Inten    --      1.3916                43.1867                40.2504

 - Thermochemistry -
 -------------------
 Temperature   298.150 Kelvin.  Pressure   1.00000 Atm.
 Atom     1 has atomic number  8 and mass  15.99491

 Molecular mass:   206.16707 amu.
 Principal axes and moments of inertia in atomic units:
                           1         2         3
     Eigenvalues --  1688.913923646.937013871.88567
           X            0.99958  -0.02886  -0.00001
           Y            0.02886   0.99958   0.00001
           Z            0.00001  -0.00001   1.00000
 This molecule is an asymmetric top.
 Rotational symmetry number  1.
 Warning -- assumption of classical behavior for rotation
           may cause significant error
 Rotational temperatures (Kelvin)      0.05128     0.02375     0.02237
 Rotational constants (GHZ):           1.06858     0.49486     0.46611
 Zero-point vibrational energy     888250.9 (Joules/Mol)
                                  212.29705 (Kcal/Mol)
 Warning -- explicit consideration of  22 degrees of freedom as
           vibrations may cause significant error
 Vibrational temperatures:     92.38   126.07   251.12   294.87   350.86
          (Kelvin)            383.46   389.19   395.30   440.89   454.29
                              484.96   506.63   536.51   559.66   566.01
                              612.95   628.30   651.21   664.22   694.32
                              772.30   889.12   916.87   972.79  1036.90
                             1130.60  1150.34  1169.08  1240.14  1281.73
                             1288.26  1297.29  1318.15  1351.00  1353.30
                             1370.52  1397.06  1398.38  1423.15  1456.79
                             1503.23  1513.51  1527.48  1553.51  1556.97
                             1559.42  1586.55  1625.02  1642.99  1681.83
                             1733.84  1762.08  1791.58  1810.45  1812.66
                             1836.65  1854.93  1878.25  1882.52  1919.59
                             1926.80  1949.98  1962.02  1989.37  1999.57
                             2013.37  2016.43  2034.24  2060.89  2062.11
                             2104.81  2171.59  2177.31  2182.32  2187.21
                             2189.74  2193.26  2197.27  2221.28  2222.27
                             2222.69  2232.06  2618.52  4359.56  4361.92
                             4372.52  4380.27  4384.68  4386.32  4388.07
                             4392.31  4403.71  4415.95  4422.08  4438.30
                             4439.12  4441.86  4445.52  4449.94  4472.30
                             4473.50  4481.98  4493.30  4497.45  4498.27

 Zero-point correction=                           0.338317 (Hartree/Particle)
 Thermal correction to Energy=                    0.351612
 Thermal correction to Enthalpy=                  0.352557
 Thermal correction to Gibbs Free Energy=         0.300308
 Sum of electronic and zero-point Energies=           -621.641781
 Sum of electronic and thermal Energies=              -621.628485
 Sum of electronic and thermal Enthalpies=            -621.627541
 Sum of electronic and thermal Free Energies=         -621.679790

                     E (Thermal)             CV                S
                      KCal/Mol        Cal/Mol-Kelvin    Cal/Mol-Kelvin
 Total                  220.640             56.963            109.967
 Electronic               0.000              0.000              0.000
 Translational            0.889              2.981             41.875
 Rotational               0.889              2.981             31.545
 Vibrational            218.863             51.001             36.547
 Vibration     1          0.597              1.971              4.324
 Vibration     2          0.601              1.958              3.712
 Vibration     3          0.627              1.874              2.386
 Vibration     4          0.640              1.833              2.088
 Vibration     5          0.659              1.773              1.775
 Vibration     6          0.672              1.735              1.619
 Vibration     7          0.674              1.728              1.593
 Vibration     8          0.677              1.720              1.566
 Vibration     9          0.697              1.661              1.382
 Vibration    10          0.703              1.644              1.332
 Vibration    11          0.718              1.601              1.226
 Vibration    12          0.729              1.571              1.157
 Vibration    13          0.744              1.528              1.068
 Vibration    14          0.757              1.494              1.004
 Vibration    15          0.761              1.484              0.987
 Vibration    16          0.788              1.414              0.872
 Vibration    17          0.797              1.390              0.837
 Vibration    18          0.811              1.355              0.788
 Vibration    19          0.819              1.335              0.761
 Vibration    20          0.839              1.289              0.703
 Vibration    21          0.892              1.169              0.572
 Vibration    22          0.978              0.994              0.420

 Normal termination of Gaussian 16 at Mon Feb 26 15:36:22 2024.
