 Gaussian 16, Revision A.03,
 Gaussian 16:  EM64M-G16RevA.03 25-Dec-2016

 ---------------------
 # freq b3lyp/6-31g(d)
 ---------------------

 ---------
 good luck
 ---------
 Symbolic Z-matrix:
 Charge =  0 Multiplicity = 1

                         Standard orientation:
 ---------------------------------------------------------------------
 Center     Atomic      Atomic             Coordinates (Angstroms)
 Number     Number       Type             X           Y           Z
 ---------------------------------------------------------------------
      1          8           0        1.234246    1.749787   -0.375343
      2          6           0        0.446621    0.942344    0.082025
      3          6           0        0.838485   -0.505124    0.392715
      4          6           0        2.288981   -0.804689    0.015203
      5          6           0       -0.170372   -1.471365   -0.277392
      6          6           0       -1.626245   -1.143726    0.081671
      7          6           0       -1.978864    0.303440   -0.287553
      8          6           0       -1.005940    1.302964    0.371896
      9          1           0        0.716143   -0.621790    1.483095
     10          1           0        2.442418   -0.689386   -1.063045
     11          1           0        2.976936   -0.117890    0.516035
     12          1           0        2.554857   -1.830697    0.293250
     13          1           0        0.074727   -2.501012    0.012025
     14          1           0       -0.041026   -1.415877   -1.368309
     15          1           0       -2.303865   -1.838764   -0.429629
     16          1           0       -1.779765   -1.294185    1.160500
     17          1           0       -1.929756    0.422553   -1.378859
     18          1           0       -3.008421    0.540025    0.006862
     19          1           0       -1.181068    2.329431    0.036734
     20          1           0       -1.151138    1.276235    1.462689
 ---------------------------------------------------------------------

 SCF Done:  E(RB3LYP) =  -349.207046817     A.U. after   13 cycles

 The electronic state is 1-A.
 Alpha  occ. eigenvalues --  -19.13294 -10.26605 -10.19615 -10.19391 -10.19186
 Alpha  occ. eigenvalues --  -10.19040 -10.18978 -10.17203  -1.03149  -0.83341
 Alpha  occ. eigenvalues --   -0.77212  -0.73059  -0.67306  -0.60832  -0.58878
 Alpha  occ. eigenvalues --   -0.52525  -0.47056  -0.46527  -0.44474  -0.43833
 Alpha  occ. eigenvalues --   -0.42612  -0.40289  -0.38432  -0.37888  -0.37125
 Alpha  occ. eigenvalues --   -0.35303  -0.34366  -0.33064  -0.32674  -0.31654
 Alpha  occ. eigenvalues --   -0.23433
 Alpha virt. eigenvalues --   -0.01152   0.09024   0.10380   0.11264   0.13384
 Alpha virt. eigenvalues --    0.14702   0.15827   0.16285   0.16629   0.17624
 Alpha virt. eigenvalues --    0.18123   0.18609   0.19290   0.19692   0.22970

 Mulliken charges:
               1
     1  O   -0.449485
     2  C    0.450472
     3  C   -0.166350
     4  C   -0.437996
     5  C   -0.264647
     6  C   -0.266063
     7  C   -0.269073
     8  C   -0.340857
     9  H    0.140669
    10  H    0.153930
    11  H    0.159762
    12  H    0.135128
    13  H    0.140694
    14  H    0.140067
    15  H    0.140126
    16  H    0.132395
    17  H    0.145089
    18  H    0.142788
    19  H    0.162107
    20  H    0.151241
 Sum of Mulliken charges =  -0.00000

 Dipole moment (field-independent basis, Debye):
    X=             -1.9434    Y=             -1.9797    Z=              0.9325  Tot=              2.9267
 Quadrupole moment (field-independent basis, Debye-Ang):
   XX=            -50.9659   YY=            -53.3307   ZZ=            -48.5136
   XY=             -3.9547   XZ=              1.1823   YZ=              1.5786

  Exact polarizability:  80.469   0.777  74.801  -1.495  -1.366  61.380
 Approx polarizability: 103.813   7.734 104.640  -5.367  -5.838  95.999

                      1                      2                      3
                      A                      A                      A
 Frequencies --     85.6042               151.4320               199.6384
 Red. masses --      3.9829                 2.2577                 1.0443
 Frc consts  --      0.0172                 0.0305                 0.0245
 IR Inten    --      1.8948                 0.4623                 0.0921

                      4                      5                      6
                      A                      A                      A
 Frequencies --    281.5501               308.0081               323.1459
 Red. masses --      2.9549                 1.7736                 2.3919
 Frc consts  --      0.1380                 0.0991                 0.1472
 IR Inten    --      4.1498                 0.3132                 0.3856

                      7                      8                      9
                      A                      A                      A
 Frequencies --    392.4296               426.9545               500.3654
 Red. masses --      3.8310                 2.8548                 2.1487
 Frc consts  --      0.3476                 0.3066                 0.3170
 IR Inten    --      3.7203                 0.7634                 3.2875

                     10                     11                     12
                      A                      A                      A
 Frequencies --    573.9642               663.8647               728.5656
 Red. masses --      3.0993                 3.1225                 2.4569
 Frc consts  --      0.6016                 0.8108                 0.7684
 IR Inten    --      3.1674                 1.3260                 4.3124

                     13                     14                     15
                      A                      A                      A
 Frequencies --    831.4240               846.7185               873.9114
 Red. masses --      1.4998                 2.3068                 2.5474
 Frc consts  --      0.6108                 0.9744                 1.1463
 IR Inten    --      5.4810                 0.1397                 3.5203

                     16                     17                     18
                      A                      A                      A
 Frequencies --    908.9290               951.0255               983.1983
 Red. masses --      1.3912                 2.2941                 1.3776
 Frc consts  --      0.6772                 1.2225                 0.7846
 IR Inten    --      2.5787                 0.3507                 6.0921

                     19                     20                     21
                      A                      A                      A
 Frequencies --   1007.2367              1071.8197              1085.0366
 Red. masses --      1.5826                 1.4039                 1.5566
 Frc consts  --      0.9460                 0.9502                 1.0797
 IR Inten    --      4.1597                 5.9902                 1.1176

                     22                     23                     24
                      A                      A                      A
 Frequencies --   1100.7249              1145.9644              1154.2536
 Red. masses --      2.4694                 1.6691                 1.9864
 Frc consts  --      1.7628                 1.2914                 1.5592
 IR Inten    --      7.0528                 9.1728                14.6049

                     25                     26                     27
                      A                      A                      A
 Frequencies --   1174.8232              1248.3666              1276.0151
 Red. masses --      2.3273                 1.5117                 1.4017
 Frc consts  --      1.8926                 1.3880                 1.3447
 IR Inten    --     10.4694                15.6796                 0.0413

                     28                     29                     30
                      A                      A                      A
 Frequencies --   1291.9762              1331.7781              1358.4615
 Red. masses --      1.2571                 1.2825                 1.4095
 Frc consts  --      1.2363                 1.3402                 1.5326
 IR Inten    --      0.2259                 1.9236                 3.7943

                     31                     32                     33
                      A                      A                      A
 Frequencies --   1360.7633              1387.7138              1399.3153
 Red. masses --      1.3369                 1.4512                 1.4789
 Frc consts  --      1.4585                 1.6465                 1.7062
 IR Inten    --      2.9080                 8.0474                 1.3451

                     34                     35                     36
                      A                      A                      A
 Frequencies --   1405.0880              1440.7595              1498.0931
 Red. masses --      1.7351                 1.2389                 1.0910
 Frc consts  --      2.0183                 1.5152                 1.4427
 IR Inten    --      6.2367                 4.1621                 6.1124

                     37                     38                     39
                      A                      A                      A
 Frequencies --   1516.9719              1519.0518              1522.4516
 Red. masses --      1.0783                 1.0863                 1.0469
 Frc consts  --      1.4620                 1.4769                 1.4297
 IR Inten    --      3.1389                 4.3737                 7.0832

                     40                     41                     42
                      A                      A                      A
 Frequencies --   1525.7288              1534.2287              1810.6071
 Red. masses --      1.0591                 1.0933                11.3104
 Frc consts  --      1.4526                 1.5163                21.8462
 IR Inten    --      6.1549                 1.6132               160.9228

                     43                     44                     45
                      A                      A                      A
 Frequencies --   2988.3829              3023.6119              3024.4281
 Red. masses --      1.0808                 1.0697                 1.0696
 Frc consts  --      5.6869                 5.7616                 5.7645
 IR Inten    --     10.4916                14.4019                 7.1330

                     46                     47                     48
                      A                      A                      A
 Frequencies --   3028.9516              3038.6284              3058.2083
 Red. masses --      1.0623                 1.0618                 1.0371
 Frc consts  --      5.7421                 5.7765                 5.7149
 IR Inten    --     33.4052                33.4222                25.5981

                     49                     50                     51
                      A                      A                      A
 Frequencies --   3074.1056              3077.6872              3084.5663
 Red. masses --      1.0970                 1.0969                 1.1034
 Frc consts  --      6.1082                 6.1218                 6.1853
 IR Inten    --     41.1105                48.3862                51.8045

                     52                     53                     54
                      A                      A                      A
 Frequencies --   3118.0532              3123.3626              3139.5657
 Red. masses --      1.0950                 1.1024                 1.1015
 Frc consts  --      6.2724                 6.3362                 6.3969
 IR Inten    --     17.5069                31.2231                20.3301

 - Thermochemistry -
 -------------------
 Temperature   298.150 Kelvin.  Pressure   1.00000 Atm.
 Atom     1 has atomic number  8 and mass  15.99491

 Molecular mass:   112.08882 amu.
 Principal axes and moments of inertia in atomic units:
                           1         2         3
     Eigenvalues --   631.97389 911.100611407.15672
           X            0.99569  -0.09268   0.00246
           Y            0.09264   0.99562   0.01225
           Z           -0.00359  -0.01197   0.99992
 This molecule is an asymmetric top.
 Rotational symmetry number  1.
 Warning -- assumption of classical behavior for rotation
           may cause significant error
 Rotational temperatures (Kelvin)      0.13705     0.09507     0.06155
 Rotational constants (GHZ):           2.85572     1.98084     1.28254
 Zero-point vibrational energy     472390.4 (Joules/Mol)
                                  112.90402 (Kcal/Mol)
 Warning -- explicit consideration of  10 degrees of freedom as
           vibrations may cause significant error
 Vibrational temperatures:    123.17   217.88   287.24   405.09   443.16
          (Kelvin)            464.93   564.62   614.29   719.91   825.81
                              955.15  1048.24  1196.23  1218.24  1257.36
                             1307.75  1368.31  1414.60  1449.19  1542.11
                             1561.13  1583.70  1648.79  1660.71  1690.31
                             1796.12  1835.90  1858.87  1916.13  1954.52
                             1957.83  1996.61  2013.30  2021.61  2072.93
                             2155.42  2182.58  2185.58  2190.47  2195.18
                             2207.41  2605.06  4299.62  4350.30  4351.48
                             4357.99  4371.91  4400.08  4422.95  4428.11
                             4438.00  4486.18  4493.82  4517.13

 Zero-point correction=                           0.179924 (Hartree/Particle)
 Thermal correction to Energy=                    0.187825
 Thermal correction to Enthalpy=                  0.188769
 Thermal correction to Gibbs Free Energy=         0.147806
 Sum of electronic and zero-point Energies=           -349.027123
 Sum of electronic and thermal Energies=              -349.019222
 Sum of electronic and thermal Enthalpies=            -349.018278
 Sum of electronic and thermal Free Energies=         -349.059241

                     E (Thermal)             CV                S
                      KCal/Mol        Cal/Mol-Kelvin    Cal/Mol-Kelvin
 Total                  117.862             30.270             86.215
 Electronic               0.000              0.000              0.000
 Translational            0.889              2.981             40.058
 Rotational               0.889              2.981             28.184
 Vibrational            116.084             24.309             17.972
 Vibration     1          0.601              1.959              3.758
 Vibration     2          0.619              1.901              2.654
 Vibration     3          0.638              1.840              2.136
 Vibration     4          0.681              1.708              1.524
 Vibration     5          0.698              1.658              1.373
 Vibration     6          0.708              1.629              1.294
 Vibration     7          0.760              1.486              0.991
 Vibration     8          0.789              1.412              0.869
 Vibration     9          0.856              1.249              0.657
 Vibration    10          0.930              1.088              0.497

 Normal termination of Gaussian 16 at Wed Feb 21 18:17:02 2024.
