 Gaussian 16, Revision A.03,
 Gaussian 16:  EM64M-G16RevA.03 25-Dec-2016

 ---------------------
 # freq b3lyp/6-31g(d)
 ---------------------

 ---------
 good luck
 ---------
 Symbolic Z-matrix:
 Charge =  0 Multiplicity = 1

                         Standard orientation:
 ---------------------------------------------------------------------
 Center     Atomic      Atomic             Coordinates (Angstroms)
 Number     Number       Type             X           Y           Z
 ---------------------------------------------------------------------
      1          8           0        2.214164   -2.116999   -0.000003
      2          6           0        1.490539   -1.139914   -0.000002
      3          6           0        0.986350   -0.456749   -1.269971
      4          6           0       -0.563181   -0.492575   -1.260180
      5          6           0        1.474272    1.013353   -1.258029
      6          6           0        0.937890    1.724992    0.000007
      7          6           0        1.474266    1.013343    1.258041
      8          6           0        0.986343   -0.456758    1.269970
      9          6           0       -0.563187   -0.492584    1.260169
     10          6           0       -1.101316    0.222996   -0.000003
     11          8           0       -2.527004    0.333725   -0.000008
     12          6           0       -3.289595   -0.859432    0.000003
     13          6           0       -0.602178    1.679369    0.000003
     14          1           0        1.382538   -0.998006   -2.134830
     15          1           0       -0.956452    0.005592   -2.155689
     16          1           0       -0.904068   -1.534754   -1.290519
     17          1           0        1.121134    1.520551   -2.165822
     18          1           0        2.571407    1.045492   -1.277915
     19          1           0        1.272802    2.769967    0.000012
     20          1           0        2.571401    1.045482    1.277932
     21          1           0        1.121125    1.520535    2.165835
     22          1           0        1.382527   -0.998021    2.134828
     23          1           0       -0.904074   -1.534764    1.290500
     24          1           0       -0.956464    0.005577    2.155680
     25          1           0       -3.113808   -1.476463    0.892362
     26          1           0       -3.113805   -1.476483   -0.892341
     27          1           0       -4.336834   -0.545325   -0.000002
     28          1           0       -1.007963    2.190282    0.882070
     29          1           0       -1.007959    2.190289   -0.882062
 ---------------------------------------------------------------------

 SCF Done:  E(RB3LYP) =  -579.253471695     A.U. after   13 cycles

 The electronic state is 1-A.
 Alpha  occ. eigenvalues --  -19.14584 -19.13436 -10.26530 -10.24440 -10.22716
 Alpha  occ. eigenvalues --  -10.19671 -10.19658 -10.19656 -10.19238 -10.19237
 Alpha  occ. eigenvalues --  -10.19067 -10.19066 -10.18149  -1.03274  -1.02782
 Alpha  occ. eigenvalues --   -0.87219  -0.78250  -0.77477  -0.76271  -0.68249
 Alpha  occ. eigenvalues --   -0.68055  -0.64882  -0.60640  -0.58246  -0.56959
 Alpha  occ. eigenvalues --   -0.51633  -0.48211  -0.46363  -0.45984  -0.45832
 Alpha  occ. eigenvalues --   -0.45129  -0.44352  -0.43042  -0.42960  -0.41622
 Alpha  occ. eigenvalues --   -0.40375  -0.40317  -0.39388  -0.36495  -0.36225
 Alpha  occ. eigenvalues --   -0.35104  -0.34842  -0.33811  -0.32439  -0.31269
 Alpha  occ. eigenvalues --   -0.31135  -0.28689  -0.25208  -0.23143
 Alpha virt. eigenvalues --   -0.01179   0.06589   0.09827   0.11785   0.11804
 Alpha virt. eigenvalues --    0.12741   0.12832   0.13864   0.13948   0.14763
 Alpha virt. eigenvalues --    0.15616   0.15952   0.16663   0.16892   0.19114

 Mulliken charges:
               1
     1  O   -0.457311
     2  C    0.453367
     3  C   -0.170581
     4  C   -0.310734
     5  C   -0.280040
     6  C   -0.101805
     7  C   -0.280040
     8  C   -0.170581
     9  C   -0.310735
    10  C    0.347678
    11  O   -0.512093
    12  C   -0.205179
    13  C   -0.284877
    14  H    0.144547
    15  H    0.146320
    16  H    0.144676
    17  H    0.140531
    18  H    0.144926
    19  H    0.129035
    20  H    0.144926
    21  H    0.140531
    22  H    0.144547
    23  H    0.144677
    24  H    0.146320
    25  H    0.135171
    26  H    0.135171
    27  H    0.159470
    28  H    0.141041
    29  H    0.141041
 Sum of Mulliken charges =  -0.00000

 Dipole moment (field-independent basis, Debye):
    X=             -1.2787    Y=              1.5463    Z=              0.0000  Tot=              2.0065
 Quadrupole moment (field-independent basis, Debye-Ang):
   XX=            -82.7609   YY=            -82.9228   ZZ=            -75.3525
   XY=             11.1652   XZ=             -0.0000   YZ=             -0.0000

  Exact polarizability: 118.995  -0.002 107.454  -0.000  -0.000 102.938
 Approx polarizability: 162.372  -9.642 164.633  -0.000  -0.000 151.425

                      1                      2                      3
                      A                      A                      A
 Frequencies --     45.2087                91.0722               191.6791
 Red. masses --      1.8038                 8.1423                 1.3738
 Frc consts  --      0.0022                 0.0398                 0.0297
 IR Inten    --      2.1103                 4.0375                 0.2950

                      4                      5                      6
                      A                      A                      A
 Frequencies --    223.6437               257.4992               272.3076
 Red. masses --      3.0471                 2.3738                 2.3464
 Frc consts  --      0.0898                 0.0927                 0.1025
 IR Inten    --      0.5562                 2.9106                 1.3283

                      7                      8                      9
                      A                      A                      A
 Frequencies --    335.6643               358.1496               366.3178
 Red. masses --      2.5782                 3.6571                 5.9331
 Frc consts  --      0.1711                 0.2764                 0.4691
 IR Inten    --      0.2163                 5.7594                 0.8098

                     10                     11                     12
                      A                      A                      A
 Frequencies --    395.6101               429.1982               449.5605
 Red. masses --      4.2730                 1.9844                 2.5738
 Frc consts  --      0.3940                 0.2154                 0.3065
 IR Inten    --      0.6206                 0.5119                 0.2731

                     13                     14                     15
                      A                      A                      A
 Frequencies --    451.6591               477.9455               539.3571
 Red. masses --      2.2083                 3.2700                 4.1446
 Frc consts  --      0.2654                 0.4401                 0.7104
 IR Inten    --      7.9215                 2.6253                 5.5997

                     16                     17                     18
                      A                      A                      A
 Frequencies --    612.2803               631.8841               708.0018
 Red. masses --      5.5867                 3.5354                 3.5503
 Frc consts  --      1.2340                 0.8317                 1.0485
 IR Inten    --      0.2685                 1.4145                 0.2604

                     19                     20                     21
                      A                      A                      A
 Frequencies --    718.0281               790.5107               806.1181
 Red. masses --      4.1369                 3.7652                 2.8438
 Frc consts  --      1.2566                 1.3863                 1.0888
 IR Inten    --      0.7814                 0.0137                 0.6509

                     22                     23                     24
                      A                      A                      A
 Frequencies --    860.2880               901.4111               906.7301
 Red. masses --      2.6563                 1.5726                 3.4689
 Frc consts  --      1.1583                 0.7529                 1.6803
 IR Inten    --      1.8007                 4.0792                13.1910

                     25                     26                     27
                      A                      A                      A
 Frequencies --    907.2563               918.0825               953.5722
 Red. masses --      1.5749                 2.3648                 2.1027
 Frc consts  --      0.7638                 1.1744                 1.1265
 IR Inten    --      1.5674                15.0597                 4.0729

                     28                     29                     30
                      A                      A                      A
 Frequencies --    979.3516               991.1834              1016.6516
 Red. masses --      2.1182                 2.1025                 2.0316
 Frc consts  --      1.1970                 1.2170                 1.2372
 IR Inten    --      3.5984                 1.9590                 0.0091

                     31                     32                     33
                      A                      A                      A
 Frequencies --   1048.3756              1063.6146              1071.7859
 Red. masses --      2.1500                 1.9218                 5.1250
 Frc consts  --      1.3923                 1.2809                 3.4687
 IR Inten    --      0.7266                 6.0258                 5.5486

                     34                     35                     36
                      A                      A                      A
 Frequencies --   1072.2343              1098.8777              1123.7531
 Red. masses --      1.7551                 1.8117                 1.4372
 Frc consts  --      1.1888                 1.2890                 1.0693
 IR Inten    --     30.6716                11.1729                 8.5970

                     37                     38                     39
                      A                      A                      A
 Frequencies --   1131.4461              1152.4666              1157.2113
 Red. masses --      1.1552                 4.0192                 1.1765
 Frc consts  --      0.8713                 3.1452                 0.9283
 IR Inten    --      0.2495               150.0560                 0.4402

                     40                     41                     42
                      A                      A                      A
 Frequencies --   1186.9414              1206.2826              1233.0921
 Red. masses --      1.2717                 1.2082                 1.3978
 Frc consts  --      1.0555                 1.0359                 1.2522
 IR Inten    --      1.0050                18.7481                17.3684

                     43                     44                     45
                      A                      A                      A
 Frequencies --   1238.1894              1263.2181              1290.1085
 Red. masses --      1.8791                 1.5168                 1.7546
 Frc consts  --      1.6973                 1.4261                 1.7206
 IR Inten    --      2.6417                 7.2936                 0.1679

                     46                     47                     48
                      A                      A                      A
 Frequencies --   1300.7766              1306.2637              1325.5943
 Red. masses --      1.5166                 1.9129                 1.6241
 Frc consts  --      1.5119                 1.9231                 1.6815
 IR Inten    --      4.4742                 9.4216                 8.6406

                     49                     50                     51
                      A                      A                      A
 Frequencies --   1337.4007              1351.7511              1356.8655
 Red. masses --      1.6535                 1.6404                 1.6195
 Frc consts  --      1.7425                 1.7660                 1.7568
 IR Inten    --      7.7189                 1.1778                 0.2273

                     52                     53                     54
                      A                      A                      A
 Frequencies --   1379.1662              1390.3817              1393.9069
 Red. masses --      1.5542                 1.5453                 1.5384
 Frc consts  --      1.7418                 1.7601                 1.7611
 IR Inten    --      4.8806                 2.7392                 0.0072

                     55                     56                     57
                      A                      A                      A
 Frequencies --   1394.5184              1410.5202              1504.2349
 Red. masses --      1.5167                 1.4944                 1.1444
 Frc consts  --      1.7378                 1.7518                 1.5256
 IR Inten    --      3.0737                 5.8056                 0.8765

                     58                     59                     60
                      A                      A                      A
 Frequencies --   1509.8939              1515.1852              1521.2130
 Red. masses --      1.0855                 1.0874                 1.0762
 Frc consts  --      1.4580                 1.4708                 1.4674
 IR Inten    --      0.0705                 4.5844                13.1234

                     61                     62                     63
                      A                      A                      A
 Frequencies --   1525.8784              1526.5933              1538.8138
 Red. masses --      1.0944                 1.0656                 1.0583
 Frc consts  --      1.5013                 1.4631                 1.4765
 IR Inten    --      1.9905                 0.0605                14.7035

                     64                     65                     66
                      A                      A                      A
 Frequencies --   1546.9288              1822.0514              3015.5098
 Red. masses --      1.0903                11.2769                 1.0359
 Frc consts  --      1.5372                22.0577                 5.5499
 IR Inten    --      1.3474               214.8003                36.7790

                     67                     68                     69
                      A                      A                      A
 Frequencies --   3036.0876              3036.1712              3040.9219
 Red. masses --      1.0642                 1.0594                 1.0609
 Frc consts  --      5.7797                 5.7540                 5.7801
 IR Inten    --     11.3011                30.4257                12.6013

                     70                     71                     72
                      A                      A                      A
 Frequencies --   3043.9785              3048.6246              3060.5077
 Red. masses --      1.0610                 1.0637                 1.0766
 Frc consts  --      5.7922                 5.8248                 5.9412
 IR Inten    --      5.5407                64.9057                68.5201

                     73                     74                     75
                      A                      A                      A
 Frequencies --   3066.7947              3074.0689              3078.1057
 Red. masses --      1.1035                 1.1056                 1.1044
 Frc consts  --      6.1148                 6.1556                 6.1654
 IR Inten    --     66.7597                10.7242                52.5755

                     76                     77                     78
                      A                      A                      A
 Frequencies --   3084.3086              3087.8235              3089.8099
 Red. masses --      1.1053                 1.1039                 1.1036
 Frc consts  --      6.1951                 6.2016                 6.2078
 IR Inten    --      0.3468                44.7170                60.7771

                     79                     80                     81
                      A                      A                      A
 Frequencies --   3091.4119              3093.2847              3132.3334
 Red. masses --      1.0876                 1.0868                 1.0985
 Frc consts  --      6.1239                 6.1268                 6.3504
 IR Inten    --     23.4426                21.9718                33.9995

 - Thermochemistry -
 -------------------
 Temperature   298.150 Kelvin.  Pressure   1.00000 Atm.
 Atom     1 has atomic number  8 and mass  15.99491

 Molecular mass:   180.11503 amu.
 Principal axes and moments of inertia in atomic units:
                           1         2         3
     Eigenvalues --  1394.466622388.599042692.93124
           X            0.99761   0.06907  -0.00000
           Y           -0.06907   0.99761  -0.00000
           Z            0.00000   0.00000   1.00000
 This molecule is an asymmetric top.
 Rotational symmetry number  1.
 Warning -- assumption of classical behavior for rotation
           may cause significant error
 Rotational temperatures (Kelvin)      0.06211     0.03626     0.03216
 Rotational constants (GHZ):           1.29422     0.75556     0.67018
 Zero-point vibrational energy     675659.8 (Joules/Mol)
                                  161.48657 (Kcal/Mol)
 Warning -- explicit consideration of  16 degrees of freedom as
           vibrations may cause significant error
 Vibrational temperatures:     65.05   131.03   275.78   321.77   370.48
          (Kelvin)            391.79   482.95   515.30   527.05   569.19
                              617.52   646.82   649.84   687.66   776.01
                              880.93   909.14  1018.66  1033.08  1137.37
                             1159.82  1237.76  1296.93  1304.58  1305.34
                             1320.92  1371.98  1409.07  1426.09  1462.73
                             1508.38  1530.30  1542.06  1542.71  1581.04
                             1616.83  1627.90  1658.14  1664.97  1707.74
                             1735.57  1774.14  1781.48  1817.49  1856.18
                             1871.53  1879.42  1907.23  1924.22  1944.87
                             1952.23  1984.31  2000.45  2005.52  2006.40
                             2029.42  2164.26  2172.40  2180.01  2188.69
                             2195.40  2196.43  2214.01  2225.69  2621.53
                             4338.65  4368.25  4368.37  4375.21  4379.61
                             4386.29  4403.39  4412.43  4422.90  4428.71
                             4437.63  4442.69  4445.55  4447.85  4450.55
                             4506.73

 Zero-point correction=                           0.257345 (Hartree/Particle)
 Thermal correction to Energy=                    0.267984
 Thermal correction to Enthalpy=                  0.268928
 Thermal correction to Gibbs Free Energy=         0.221271
 Sum of electronic and zero-point Energies=           -578.996126
 Sum of electronic and thermal Energies=              -578.985488
 Sum of electronic and thermal Enthalpies=            -578.984544
 Sum of electronic and thermal Free Energies=         -579.032200

                     E (Thermal)             CV                S
                      KCal/Mol        Cal/Mol-Kelvin    Cal/Mol-Kelvin
 Total                  168.162             44.318            100.302
 Electronic               0.000              0.000              0.000
 Translational            0.889              2.981             41.472
 Rotational               0.889              2.981             30.573
 Vibrational            166.385             38.356             28.257
 Vibration     1          0.595              1.979              5.017
 Vibration     2          0.602              1.956              3.637
 Vibration     3          0.634              1.851              2.212
 Vibration     4          0.649              1.805              1.929
 Vibration     5          0.667              1.750              1.679
 Vibration     6          0.675              1.724              1.582
 Vibration     7          0.717              1.604              1.233
 Vibration     8          0.733              1.558              1.130
 Vibration     9          0.739              1.542              1.095
 Vibration    10          0.762              1.480              0.979
 Vibration    11          0.791              1.407              0.861
 Vibration    12          0.808              1.362              0.797
 Vibration    13          0.810              1.357              0.791
 Vibration    14          0.834              1.299              0.716
 Vibration    15          0.894              1.163              0.567
 Vibration    16          0.972              1.006              0.429

 Normal termination of Gaussian 16 at Sat Feb 24 03:42:43 2024.
