 Gaussian 16, Revision A.03,
 Gaussian 16:  EM64M-G16RevA.03 25-Dec-2016

 ---------------------
 # freq b3lyp/6-31g(d)
 ---------------------

 ---------
 good luck
 ---------
 Symbolic Z-matrix:
 Charge =  0 Multiplicity = 1

                         Standard orientation:
 ---------------------------------------------------------------------
 Center     Atomic      Atomic             Coordinates (Angstroms)
 Number     Number       Type             X           Y           Z
 ---------------------------------------------------------------------
      1          8           0        1.493430    2.194015   -0.442029
      2          6           0        1.339104    1.090444    0.048523
      3          6           0        2.512692    0.174104    0.372107
      4          6           0        2.318887   -1.223797   -0.250782
      5          6           0        0.952057   -1.818117    0.115311
      6          6           0       -0.203694   -0.887192   -0.282974
      7          6           0       -0.041380    0.517213    0.366337
      8          6           0       -1.183752    1.464539   -0.021167
      9          6           0       -2.553378    0.857903    0.314691
     10          6           0       -2.729690   -0.527304   -0.325308
     11          6           0       -1.583419   -1.474432    0.059679
     12          1           0        3.434086    0.653589    0.028906
     13          1           0        2.573235    0.073122    1.466505
     14          1           0        3.128436   -1.888663    0.073552
     15          1           0        2.399574   -1.143113   -1.343570
     16          1           0        0.909322   -2.004060    1.199472
     17          1           0        0.825013   -2.793667   -0.372151
     18          1           0       -0.161461   -0.746356   -1.376084
     19          1           0       -0.063076    0.358921    1.459815
     20          1           0       -1.120564    1.673422   -1.097423
     21          1           0       -1.049804    2.429212    0.480335
     22          1           0       -2.654433    0.766588    1.406677
     23          1           0       -3.353435    1.532551   -0.015078
     24          1           0       -3.692644   -0.964071   -0.031771
     25          1           0       -2.756554   -0.419488   -1.419608
     26          1           0       -1.705028   -2.443419   -0.442990
     27          1           0       -1.624665   -1.676852    1.141141
 ---------------------------------------------------------------------

 SCF Done:  E(RB3LYP) =  -465.945294495     A.U. after   13 cycles

 The electronic state is 1-A.
 Alpha  occ. eigenvalues --  -19.13200 -10.26509 -10.19504 -10.19311 -10.19128
 Alpha  occ. eigenvalues --  -10.18880 -10.18764 -10.18292 -10.18030 -10.17859
 Alpha  occ. eigenvalues --  -10.17526  -1.03040  -0.84762  -0.80116  -0.75278
 Alpha  occ. eigenvalues --   -0.74141  -0.70334  -0.62337  -0.61497  -0.58055
 Alpha  occ. eigenvalues --   -0.55749  -0.52716  -0.47034  -0.46474  -0.46003
 Alpha  occ. eigenvalues --   -0.44491  -0.43896  -0.42274  -0.41257  -0.40178
 Alpha  occ. eigenvalues --   -0.39018  -0.36987  -0.36005  -0.35782  -0.34863
 Alpha  occ. eigenvalues --   -0.34285  -0.33549  -0.32653  -0.31918  -0.30187
 Alpha  occ. eigenvalues --   -0.29490  -0.23263
 Alpha virt. eigenvalues --   -0.00999   0.08628   0.09199   0.09993   0.12207
 Alpha virt. eigenvalues --    0.13596   0.13910   0.15204   0.15647   0.16153
 Alpha virt. eigenvalues --    0.16630   0.17443   0.17766   0.18328   0.18838

 Mulliken charges:
               1
     1  O   -0.452133
     2  C    0.446921
     3  C   -0.340546
     4  C   -0.273648
     5  C   -0.266540
     6  C   -0.086890
     7  C   -0.176870
     8  C   -0.253823
     9  C   -0.264978
    10  C   -0.260825
    11  C   -0.259550
    12  H    0.161336
    13  H    0.151142
    14  H    0.142279
    15  H    0.144769
    16  H    0.128698
    17  H    0.136384
    18  H    0.124607
    19  H    0.132648
    20  H    0.141281
    21  H    0.146069
    22  H    0.125968
    23  H    0.134232
    24  H    0.131914
    25  H    0.130855
    26  H    0.131023
    27  H    0.125680
 Sum of Mulliken charges =  -0.00000

 Dipole moment (field-independent basis, Debye):
    X=             -0.5507    Y=             -2.6749    Z=              0.9317  Tot=              2.8856
 Quadrupole moment (field-independent basis, Debye-Ang):
   XX=            -67.2752   YY=            -74.7847   ZZ=            -66.7582
   XY=             -4.7517   XZ=              1.6849   YZ=              2.3596

  Exact polarizability: 113.447  -0.895 104.656   0.105  -1.847  83.970
 Approx polarizability: 137.763   2.436 151.580  -1.108  -8.349 138.655

                      1                      2                      3
                      A                      A                      A
 Frequencies --     77.8728               120.2884               155.7355
 Red. masses --      4.3882                 2.5455                 2.5780
 Frc consts  --      0.0157                 0.0217                 0.0368
 IR Inten    --      2.0746                 0.6425                 0.4133

                      4                      5                      6
                      A                      A                      A
 Frequencies --    255.7076               259.0634               298.0461
 Red. masses --      2.7805                 2.5427                 2.0400
 Frc consts  --      0.1071                 0.1005                 0.1068
 IR Inten    --      3.2331                 1.7578                 0.2844

                      7                      8                      9
                      A                      A                      A
 Frequencies --    340.9374               379.4792               391.5370
 Red. masses --      1.8692                 3.7860                 3.4528
 Frc consts  --      0.1280                 0.3212                 0.3119
 IR Inten    --      0.1333                 0.1015                 1.0621

                     10                     11                     12
                      A                      A                      A
 Frequencies --    416.5972               458.2785               502.6823
 Red. masses --      2.7960                 2.8675                 2.1468
 Frc consts  --      0.2859                 0.3548                 0.3196
 IR Inten    --      1.2954                 1.2289                 1.1860

                     13                     14                     15
                      A                      A                      A
 Frequencies --    542.1674               577.6767               652.5352
 Red. masses --      1.6810                 3.5688                 3.5626
 Frc consts  --      0.2911                 0.7017                 0.8938
 IR Inten    --      0.2340                 8.6892                 1.4530

                     16                     17                     18
                      A                      A                      A
 Frequencies --    784.3761               825.6644               843.1419
 Red. masses --      1.9847                 2.0023                 2.6174
 Frc consts  --      0.7194                 0.8043                 1.0963
 IR Inten    --      0.2099                 3.3582                 7.5116

                     19                     20                     21
                      A                      A                      A
 Frequencies --    857.9921               868.5371               873.8196
 Red. masses --      1.6173                 1.8327                 1.9558
 Frc consts  --      0.7014                 0.8146                 0.8799
 IR Inten    --      1.3966                 1.1772                 0.1327

                     22                     23                     24
                      A                      A                      A
 Frequencies --    899.4810               925.5266               970.6582
 Red. masses --      2.6298                 1.4179                 2.4096
 Frc consts  --      1.2536                 0.7156                 1.3376
 IR Inten    --      1.0385                 5.5499                 0.4608

                     25                     26                     27
                      A                      A                      A
 Frequencies --    999.4634              1014.9232              1044.7149
 Red. masses --      1.7168                 1.9569                 1.8475
 Frc consts  --      1.0104                 1.1877                 1.1880
 IR Inten    --      3.2175                 1.2411                 0.2875

                     28                     29                     30
                      A                      A                      A
 Frequencies --   1058.2099              1072.0683              1090.4166
 Red. masses --      1.5278                 1.3601                 1.4876
 Frc consts  --      1.0080                 0.9210                 1.0422
 IR Inten    --      9.1773                 0.4683                 1.4313

                     31                     32                     33
                      A                      A                      A
 Frequencies --   1101.3307              1120.3570              1156.4977
 Red. masses --      2.9274                 2.1749                 1.8308
 Frc consts  --      2.0920                 1.6084                 1.4427
 IR Inten    --      4.0142                10.3925                 1.1572

                     34                     35                     36
                      A                      A                      A
 Frequencies --   1167.6237              1200.4587              1230.5780
 Red. masses --      2.2803                 1.5174                 1.6128
 Frc consts  --      1.8317                 1.2884                 1.4390
 IR Inten    --      4.7958                 8.4048                26.5758

                     37                     38                     39
                      A                      A                      A
 Frequencies --   1254.1060              1274.1715              1282.3182
 Red. masses --      1.3585                 1.3829                 1.4637
 Frc consts  --      1.2588                 1.3229                 1.4180
 IR Inten    --      0.3796                 1.4652                 5.2845

                     40                     41                     42
                      A                      A                      A
 Frequencies --   1302.3465              1324.4653              1338.8539
 Red. masses --      1.2301                 1.2933                 1.3304
 Frc consts  --      1.2293                 1.3367                 1.4050
 IR Inten    --      0.6225                 2.0193                 7.5229

                     43                     44                     45
                      A                      A                      A
 Frequencies --   1344.2739              1358.6608              1384.7380
 Red. masses --      1.2851                 1.3638                 1.3543
 Frc consts  --      1.3683                 1.4833                 1.5301
 IR Inten    --      3.5808                 5.6691                 5.3131

                     46                     47                     48
                      A                      A                      A
 Frequencies --   1386.3584              1391.6223              1396.5403
 Red. masses --      1.4092                 1.4035                 1.4301
 Frc consts  --      1.5958                 1.6015                 1.6434
 IR Inten    --      0.8403                 3.1323                 4.0861

                     49                     50                     51
                      A                      A                      A
 Frequencies --   1399.3865              1405.4567              1416.0867
 Red. masses --      1.4819                 1.5015                 1.7623
 Frc consts  --      1.7098                 1.7474                 2.0821
 IR Inten    --      5.1052                 5.3204                 3.4364

                     52                     53                     54
                      A                      A                      A
 Frequencies --   1497.7888              1511.0467              1514.5353
 Red. masses --      1.0921                 1.0890                 1.0929
 Frc consts  --      1.4435                 1.4650                 1.4770
 IR Inten    --      6.2049                 2.1310                 2.0555

                     55                     56                     57
                      A                      A                      A
 Frequencies --   1517.7571              1520.0779              1528.6592
 Red. masses --      1.0851                 1.0841                 1.0952
 Frc consts  --      1.4728                 1.4759                 1.5079
 IR Inten    --      2.3116                10.5445                 1.8882

                     58                     59                     60
                      A                      A                      A
 Frequencies --   1531.8196              1808.3734              2968.6739
 Red. masses --      1.0992                11.4993                 1.0793
 Frc consts  --      1.5197                22.1564                 5.6044
 IR Inten    --      0.0935               164.3486                 5.4536

                     61                     62                     63
                      A                      A                      A
 Frequencies --   2989.4240              3012.5490              3019.1578
 Red. masses --      1.0822                 1.0651                 1.0695
 Frc consts  --      5.6982                 5.6952                 5.7441
 IR Inten    --     11.1316                 3.3516                20.2465

                     64                     65                     66
                      A                      A                      A
 Frequencies --   3020.9171              3024.5324              3026.3846
 Red. masses --      1.0668                 1.0699                 1.0623
 Frc consts  --      5.7362                 5.7666                 5.7327
 IR Inten    --     46.1929                10.2255                37.8826

                     67                     68                     69
                      A                      A                      A
 Frequencies --   3038.5745              3048.7436              3060.5701
 Red. masses --      1.0630                 1.0665                 1.0971
 Frc consts  --      5.7827                 5.8404                 6.0545
 IR Inten    --     31.2155                14.9055                17.6212

                     70                     71                     72
                      A                      A                      A
 Frequencies --   3070.0263              3072.2027              3076.3968
 Red. masses --      1.0960                 1.0938                 1.1000
 Frc consts  --      6.0862                 6.0823                 6.1335
 IR Inten    --     84.0539                62.7773                64.8442

                     73                     74                     75
                      A                      A                      A
 Frequencies --   3083.2362              3097.2463              3117.7690
 Red. masses --      1.1022                 1.0999                 1.0951
 Frc consts  --      6.1732                 6.2169                 6.2716
 IR Inten    --     50.1277                35.6636                22.8492

 - Thermochemistry -
 -------------------
 Temperature   298.150 Kelvin.  Pressure   1.00000 Atm.
 Atom     1 has atomic number  8 and mass  15.99491

 Molecular mass:   152.12012 amu.
 Principal axes and moments of inertia in atomic units:
                           1         2         3
     Eigenvalues --  1043.777311909.330402757.40895
           X            0.99915  -0.04108   0.00342
           Y            0.04105   0.99913   0.00751
           Z           -0.00372  -0.00737   0.99997
 This molecule is an asymmetric top.
 Rotational symmetry number  1.
 Warning -- assumption of classical behavior for rotation
           may cause significant error
 Rotational temperatures (Kelvin)      0.08298     0.04536     0.03141
 Rotational constants (GHZ):           1.72905     0.94522     0.65451
 Zero-point vibrational energy     645686.1 (Joules/Mol)
                                  154.32269 (Kcal/Mol)
 Warning -- explicit consideration of  14 degrees of freedom as
           vibrations may cause significant error
 Vibrational temperatures:    112.04   173.07   224.07   367.91   372.73
          (Kelvin)            428.82   490.53   545.99   563.33   599.39
                              659.36   723.25   780.06   831.15   938.85
                             1128.54  1187.95  1213.09  1234.46  1249.63
                             1257.23  1294.15  1331.63  1396.56  1438.00
                             1460.25  1503.11  1522.53  1542.47  1568.87
                             1584.57  1611.94  1663.94  1679.95  1727.19
                             1770.53  1804.38  1833.25  1844.97  1873.79
                             1905.61  1926.31  1934.11  1954.81  1992.33
                             1994.66  2002.23  2009.31  2013.41  2022.14
                             2037.43  2154.98  2174.06  2179.08  2183.71
                             2187.05  2199.40  2203.95  2601.85  4271.26
                             4301.11  4334.39  4343.89  4346.43  4351.63
                             4354.29  4371.83  4386.46  4403.48  4417.08
                             4420.21  4426.25  4436.09  4456.25  4485.77

 Zero-point correction=                           0.245929 (Hartree/Particle)
 Thermal correction to Energy=                    0.255563
 Thermal correction to Enthalpy=                  0.256507
 Thermal correction to Gibbs Free Energy=         0.211330
 Sum of electronic and zero-point Energies=           -465.699366
 Sum of electronic and thermal Energies=              -465.689732
 Sum of electronic and thermal Enthalpies=            -465.688788
 Sum of electronic and thermal Free Energies=         -465.733965

                     E (Thermal)             CV                S
                      KCal/Mol        Cal/Mol-Kelvin    Cal/Mol-Kelvin
 Total                  160.368             39.392             95.083
 Electronic               0.000              0.000              0.000
 Translational            0.889              2.981             40.968
 Rotational               0.889              2.981             30.087
 Vibrational            158.591             33.430             24.028
 Vibration     1          0.599              1.964              3.944
 Vibration     2          0.609              1.932              3.096
 Vibration     3          0.620              1.896              2.601
 Vibration     4          0.666              1.753              1.691
 Vibration     5          0.668              1.747              1.668
 Vibration     6          0.691              1.677              1.428
 Vibration     7          0.720              1.594              1.208
 Vibration     8          0.749              1.514              1.041
 Vibration     9          0.759              1.488              0.994
 Vibration    10          0.780              1.434              0.904
 Vibration    11          0.816              1.343              0.771
 Vibration    12          0.858              1.244              0.651
 Vibration    13          0.897              1.157              0.561
 Vibration    14          0.934              1.080              0.490

 Normal termination of Gaussian 16 at Thu Feb 22 06:55:43 2024.
