 Gaussian 16, Revision A.03,
 Gaussian 16:  EM64M-G16RevA.03 25-Dec-2016

 ---------------------
 # freq b3lyp/6-31g(d)
 ---------------------

 ---------
 good luck
 ---------
 Symbolic Z-matrix:
 Charge =  0 Multiplicity = 1

                         Standard orientation:
 ---------------------------------------------------------------------
 Center     Atomic      Atomic             Coordinates (Angstroms)
 Number     Number       Type             X           Y           Z
 ---------------------------------------------------------------------
      1          8           0        0.261053   -1.962156   -0.377525
      2          6           0        0.083442   -0.762083   -0.371919
      3          6           0        1.188783    0.300056   -0.288628
      4          6           0        2.413618   -0.157847    0.499766
      5          6           0        0.439939    1.543797    0.222845
      6          6           0       -0.962785    1.434783   -0.418397
      7          6           0       -1.294188   -0.074705   -0.403638
      8          6           0       -2.131006   -0.526231    0.806737
      9          1           0        1.485644    0.486558   -1.335593
     10          1           0        3.225007    0.575135    0.435266
     11          1           0        2.165766   -0.296732    1.558731
     12          1           0        2.775670   -1.116064    0.114781
     13          1           0        0.946952    2.481770   -0.025576
     14          1           0        0.362275    1.498648    1.318031
     15          1           0       -1.713038    2.035287    0.106974
     16          1           0       -0.922432    1.801594   -1.451867
     17          1           0       -1.814757   -0.392297   -1.315712
     18          1           0       -3.142920   -0.110114    0.752210
     19          1           0       -2.201290   -1.618001    0.831349
     20          1           0       -1.682111   -0.195152    1.751022
 ---------------------------------------------------------------------

 SCF Done:  E(RB3LYP) =  -349.203124715     A.U. after   13 cycles

 The electronic state is 1-A.
 Alpha  occ. eigenvalues --  -19.13587 -10.26510 -10.19537 -10.19487 -10.18952
 Alpha  occ. eigenvalues --  -10.18870 -10.18256 -10.17713  -1.03435  -0.84212
 Alpha  occ. eigenvalues --   -0.77014  -0.71665  -0.65556  -0.64550  -0.57249
 Alpha  occ. eigenvalues --   -0.52182  -0.47687  -0.46152  -0.44253  -0.43051
 Alpha  occ. eigenvalues --   -0.41526  -0.40121  -0.39105  -0.37928  -0.36515
 Alpha  occ. eigenvalues --   -0.36401  -0.33705  -0.33113  -0.32736  -0.32603
 Alpha  occ. eigenvalues --   -0.23358
 Alpha virt. eigenvalues --   -0.01594   0.08498   0.10584   0.11557   0.13418
 Alpha virt. eigenvalues --    0.14609   0.15713   0.16197   0.17234   0.17512
 Alpha virt. eigenvalues --    0.17968   0.19239   0.19790   0.21004   0.21743

 Mulliken charges:
               1
     1  O   -0.461230
     2  C    0.447233
     3  C   -0.161581
     4  C   -0.444865
     5  C   -0.283301
     6  C   -0.287840
     7  C   -0.156773
     8  C   -0.451834
     9  H    0.155449
    10  H    0.142693
    11  H    0.145909
    12  H    0.169242
    13  H    0.142573
    14  H    0.141167
    15  H    0.142225
    16  H    0.139336
    17  H    0.155827
    18  H    0.148817
    19  H    0.171463
    20  H    0.145490
 Sum of Mulliken charges =  -0.00000

 Dipole moment (field-independent basis, Debye):
    X=             -0.4365    Y=              2.6183    Z=              0.0091  Tot=              2.6545
 Quadrupole moment (field-independent basis, Debye-Ang):
   XX=            -47.7232   YY=            -55.7234   ZZ=            -48.2629
   XY=              1.2364   XZ=             -0.1081   YZ=             -1.1919

  Exact polarizability:  79.300  -0.173  73.959  -0.174  -0.628  61.519
 Approx polarizability:  98.583  -1.719 110.109  -0.880  -0.005  91.493

                      1                      2                      3
                      A                      A                      A
 Frequencies --     53.6894               162.7051               196.3563
 Red. masses --      3.4877                 2.0131                 1.1736
 Frc consts  --      0.0059                 0.0314                 0.0267
 IR Inten    --      2.0006                 0.1908                 0.7965

                      4                      5                      6
                      A                      A                      A
 Frequencies --    221.8907               235.9971               272.3707
 Red. masses --      2.2142                 1.1468                 2.8702
 Frc consts  --      0.0642                 0.0376                 0.1255
 IR Inten    --      1.7995                 0.2698                 6.0901

                      7                      8                      9
                      A                      A                      A
 Frequencies --    333.4868               389.4258               491.8783
 Red. masses --      2.3350                 2.1405                 3.5944
 Frc consts  --      0.1530                 0.1913                 0.5124
 IR Inten    --      0.8099                 0.9411                 4.6119

                     10                     11                     12
                      A                      A                      A
 Frequencies --    547.5633               607.9977               651.7324
 Red. masses --      3.7537                 2.6420                 4.8381
 Frc consts  --      0.6631                 0.5754                 1.2108
 IR Inten    --      1.3160                 1.2064                 0.7269

                     13                     14                     15
                      A                      A                      A
 Frequencies --    771.4826               813.6702               874.7741
 Red. masses --      2.4887                 1.9216                 2.1988
 Frc consts  --      0.8727                 0.7495                 0.9914
 IR Inten    --      2.6031                 1.3906                 1.7534

                     16                     17                     18
                      A                      A                      A
 Frequencies --    921.4285               946.7201               973.9905
 Red. masses --      2.0034                 1.3125                 2.2775
 Frc consts  --      1.0022                 0.6931                 1.2729
 IR Inten    --     18.4495                 2.2717                 3.0779

                     19                     20                     21
                      A                      A                      A
 Frequencies --    992.3352              1028.3534              1060.9002
 Red. masses --      1.5201                 1.3242                 1.6037
 Frc consts  --      0.8820                 0.8251                 1.0635
 IR Inten    --     14.7905                 3.4946                 1.8090

                     22                     23                     24
                      A                      A                      A
 Frequencies --   1077.5981              1127.8396              1162.8751
 Red. masses --      1.8268                 1.9892                 2.1591
 Frc consts  --      1.2499                 1.4908                 1.7202
 IR Inten    --      6.8086                25.3569                 6.4595

                     25                     26                     27
                      A                      A                      A
 Frequencies --   1191.3762              1204.1562              1239.5074
 Red. masses --      2.0359                 1.5999                 1.4425
 Frc consts  --      1.7026                 1.3668                 1.3058
 IR Inten    --     18.9775                 4.1424                 0.2159

                     28                     29                     30
                      A                      A                      A
 Frequencies --   1293.6946              1316.8600              1330.2407
 Red. masses --      1.7546                 1.2951                 1.3784
 Frc consts  --      1.7302                 1.3232                 1.4371
 IR Inten    --      5.5219                 0.3589                 1.4370

                     31                     32                     33
                      A                      A                      A
 Frequencies --   1348.9187              1358.0325              1378.2320
 Red. masses --      1.4719                 1.3416                 1.7487
 Frc consts  --      1.5779                 1.4578                 1.9570
 IR Inten    --      2.9815                 2.4329                 6.8880

                     34                     35                     36
                      A                      A                      A
 Frequencies --   1430.2595              1435.4003              1519.0535
 Red. masses --      1.2184                 1.2288                 1.0741
 Frc consts  --      1.4685                 1.4917                 1.4603
 IR Inten    --      3.8937                 3.0924                 2.1298

                     37                     38                     39
                      A                      A                      A
 Frequencies --   1524.6916              1527.8275              1529.9372
 Red. masses --      1.0482                 1.0489                 1.0545
 Frc consts  --      1.4357                 1.4425                 1.4543
 IR Inten    --      6.7205                 3.7858                 4.8005

                     40                     41                     42
                      A                      A                      A
 Frequencies --   1530.5275              1535.6553              1832.5245
 Red. masses --      1.0594                 1.0867                12.4746
 Frc consts  --      1.4622                 1.5099                24.6818
 IR Inten    --      7.6769                 3.7971               156.8027

                     43                     44                     45
                      A                      A                      A
 Frequencies --   2983.9975              3040.1639              3047.4601
 Red. masses --      1.0808                 1.0678                 1.0617
 Frc consts  --      5.6703                 5.8146                 5.8095
 IR Inten    --     11.3616                15.7413                21.1969

                     46                     47                     48
                      A                      A                      A
 Frequencies --   3050.1081              3053.1407              3061.9755
 Red. masses --      1.0436                 1.0371                 1.0780
 Frc consts  --      5.7201                 5.6958                 5.9550
 IR Inten    --     21.6920                33.9344                24.3340

                     49                     50                     51
                      A                      A                      A
 Frequencies --   3098.5398              3105.6007              3114.4320
 Red. masses --      1.0967                 1.1021                 1.1020
 Frc consts  --      6.2036                 6.2629                 6.2978
 IR Inten    --     29.2964                33.8318                36.2312

                     52                     53                     54
                      A                      A                      A
 Frequencies --   3116.9069              3134.8258              3135.5092
 Red. masses --      1.1022                 1.1021                 1.1025
 Frc consts  --      6.3089                 6.3810                 6.3863
 IR Inten    --     37.1528                 8.4124                22.8103

 - Thermochemistry -
 -------------------
 Temperature   298.150 Kelvin.  Pressure   1.00000 Atm.
 Atom     1 has atomic number  8 and mass  15.99491

 Molecular mass:   112.08882 amu.
 Principal axes and moments of inertia in atomic units:
                           1         2         3
     Eigenvalues --   649.26159 935.171931336.51301
           X            0.99983   0.01862  -0.00039
           Y           -0.01863   0.99956  -0.02297
           Z           -0.00004   0.02298   0.99974
 This molecule is an asymmetric top.
 Rotational symmetry number  1.
 Warning -- assumption of classical behavior for rotation
           may cause significant error
 Rotational temperatures (Kelvin)      0.13340     0.09262     0.06481
 Rotational constants (GHZ):           2.77968     1.92985     1.35034
 Zero-point vibrational energy     468856.1 (Joules/Mol)
                                  112.05929 (Kcal/Mol)
 Warning -- explicit consideration of  11 degrees of freedom as
           vibrations may cause significant error
 Vibrational temperatures:     77.25   234.10   282.51   319.25   339.55
          (Kelvin)            391.88   479.81   560.30   707.70   787.82
                              874.77   937.70  1109.99  1170.69  1258.60
                             1325.73  1362.12  1401.36  1427.75  1479.57
                             1526.40  1550.42  1622.71  1673.12  1714.12
                             1732.51  1783.37  1861.34  1894.67  1913.92
                             1940.79  1953.91  1982.97  2057.82  2065.22
                             2185.58  2193.69  2198.20  2201.24  2202.09
                             2209.47  2636.59  4293.31  4374.12  4384.62
                             4388.43  4392.79  4405.50  4458.11  4468.27
                             4480.97  4484.53  4510.32  4511.30

 Zero-point correction=                           0.178578 (Hartree/Particle)
 Thermal correction to Energy=                    0.186998
 Thermal correction to Enthalpy=                  0.187942
 Thermal correction to Gibbs Free Energy=         0.145677
 Sum of electronic and zero-point Energies=           -349.024547
 Sum of electronic and thermal Energies=              -349.016127
 Sum of electronic and thermal Enthalpies=            -349.015183
 Sum of electronic and thermal Free Energies=         -349.057448

                     E (Thermal)             CV                S
                      KCal/Mol        Cal/Mol-Kelvin    Cal/Mol-Kelvin
 Total                  117.343             31.458             88.954
 Electronic               0.000              0.000              0.000
 Translational            0.889              2.981             40.058
 Rotational               0.889              2.981             28.186
 Vibrational            115.565             25.497             20.710
 Vibration     1          0.596              1.976              4.677
 Vibration     2          0.623              1.888              2.518
 Vibration     3          0.636              1.845              2.167
 Vibration     4          0.648              1.808              1.944
 Vibration     5          0.655              1.786              1.833
 Vibration     6          0.675              1.724              1.581
 Vibration     7          0.715              1.609              1.243
 Vibration     8          0.757              1.493              1.002
 Vibration     9          0.848              1.268              0.679
 Vibration    10          0.903              1.145              0.549
 Vibration    11          0.967              1.015              0.436

 Normal termination of Gaussian 16 at Wed Feb 21 18:19:45 2024.
