 Gaussian 16, Revision A.03,
 Gaussian 16:  EM64M-G16RevA.03 25-Dec-2016

 ---------------------
 # freq b3lyp/6-31g(d)
 ---------------------

 ---------
 good luck
 ---------
 Symbolic Z-matrix:
 Charge =  0 Multiplicity = 1

                         Standard orientation:
 ---------------------------------------------------------------------
 Center     Atomic      Atomic             Coordinates (Angstroms)
 Number     Number       Type             X           Y           Z
 ---------------------------------------------------------------------
      1          8           0        0.090089   -1.992696   -0.892971
      2          6           0        0.017478   -0.923500   -0.323380
      3          6           0       -1.263701   -0.196735    0.101547
      4          6           0       -2.493766   -1.082662    0.182065
      5          6           0       -0.754989    0.524567    1.375234
      6          6           0       -1.370025    1.014020   -0.888680
      7          6           0       -0.247864    1.991168   -0.420288
      8          6           0        0.466725    1.189412    0.693872
      9          6           0        1.219587   -0.040282    0.093564
     10          6           0        2.053384   -0.779089    1.163896
     11          6           0        2.130438    0.239527   -1.113874
     12          1           0       -2.352983   -1.890226    0.909089
     13          1           0       -3.376579   -0.504152    0.478460
     14          1           0       -2.696505   -1.549960   -0.787554
     15          1           0       -0.504109   -0.163171    2.189271
     16          1           0       -1.477558    1.256192    1.755795
     17          1           0       -2.364703    1.465033   -0.794378
     18          1           0       -1.258582    0.697421   -1.931545
     19          1           0       -0.680459    2.904294    0.003325
     20          1           0        0.417164    2.301742   -1.229982
     21          1           0        1.099998    1.802612    1.342976
     22          1           0        2.933122   -0.181770    1.432283
     23          1           0        2.397142   -1.741082    0.770087
     24          1           0        1.490019   -0.976085    2.081214
     25          1           0        2.938755    0.927876   -0.838261
     26          1           0        1.590952    0.671386   -1.961964
     27          1           0        2.579994   -0.697092   -1.458773
 ---------------------------------------------------------------------

 SCF Done:  E(RB3LYP) =  -465.926540347     A.U. after   13 cycles

 The electronic state is 1-A.
 Alpha  occ. eigenvalues --  -19.13388 -10.25965 -10.19958 -10.19789 -10.19287
 Alpha  occ. eigenvalues --  -10.19070 -10.18681 -10.18580 -10.17988 -10.17755
 Alpha  occ. eigenvalues --  -10.17419  -1.03199  -0.87834  -0.79107  -0.74435
 Alpha  occ. eigenvalues --   -0.71510  -0.68334  -0.66580  -0.63993  -0.57642
 Alpha  occ. eigenvalues --   -0.54962  -0.49802  -0.48066  -0.47497  -0.45151
 Alpha  occ. eigenvalues --   -0.43876  -0.42643  -0.41418  -0.40219  -0.39570
 Alpha  occ. eigenvalues --   -0.38552  -0.37944  -0.37098  -0.35909  -0.35273
 Alpha  occ. eigenvalues --   -0.34861  -0.34712  -0.33258  -0.32043  -0.30782
 Alpha  occ. eigenvalues --   -0.30316  -0.22691
 Alpha virt. eigenvalues --   -0.00835   0.07326   0.10023   0.10881   0.12075
 Alpha virt. eigenvalues --    0.12567   0.14092   0.15432   0.15954   0.16611
 Alpha virt. eigenvalues --    0.16940   0.17570   0.17867   0.18477   0.19879

 Mulliken charges:
               1
     1  O   -0.477991
     2  C    0.442700
     3  C    0.025648
     4  C   -0.466985
     5  C   -0.297402
     6  C   -0.293518
     7  C   -0.280149
     8  C   -0.119830
     9  C    0.043440
    10  C   -0.460133
    11  C   -0.459045
    12  H    0.149458
    13  H    0.137257
    14  H    0.162060
    15  H    0.143385
    16  H    0.138032
    17  H    0.146886
    18  H    0.151521
    19  H    0.139533
    20  H    0.143624
    21  H    0.118112
    22  H    0.145392
    23  H    0.166351
    24  H    0.147049
    25  H    0.142332
    26  H    0.147417
    27  H    0.164853
 Sum of Mulliken charges =  -0.00000

 Dipole moment (field-independent basis, Debye):
    X=             -0.1083    Y=              2.4674    Z=              1.1824  Tot=              2.7382
 Quadrupole moment (field-independent basis, Debye-Ang):
   XX=            -65.6320   YY=            -73.2455   ZZ=            -68.0051
   XY=             -0.2291   XZ=              0.1888   YZ=             -3.1729

  Exact polarizability: 107.305  -1.008  99.028   0.106   1.186  90.498
 Approx polarizability: 140.939  -3.112 149.909  -0.276   7.860 137.026

                      1                      2                      3
                      A                      A                      A
 Frequencies --     85.4048               178.7586               189.3706
 Red. masses --      4.0002                 1.4300                 1.1299
 Frc consts  --      0.0172                 0.0269                 0.0239
 IR Inten    --      2.2843                 0.8386                 0.1534

                      4                      5                      6
                      A                      A                      A
 Frequencies --    194.3007               207.8783               228.8985
 Red. masses --      1.8128                 1.7762                 1.2416
 Frc consts  --      0.0403                 0.0452                 0.0383
 IR Inten    --      0.9296                 0.5760                 1.1544

                      7                      8                      9
                      A                      A                      A
 Frequencies --    259.9244               291.7511               299.1687
 Red. masses --      2.2397                 3.4620                 2.4229
 Frc consts  --      0.0892                 0.1736                 0.1278
 IR Inten    --      0.4464                 5.7227                 0.4930

                     10                     11                     12
                      A                      A                      A
 Frequencies --    327.3562               371.9281               423.3344
 Red. masses --      2.3211                 2.1886                 2.9566
 Frc consts  --      0.1466                 0.1784                 0.3122
 IR Inten    --      0.1869                 0.3402                 0.7388

                     13                     14                     15
                      A                      A                      A
 Frequencies --    448.7133               510.0125               522.2954
 Red. masses --      2.1382                 3.1827                 3.2305
 Frc consts  --      0.2537                 0.4878                 0.5192
 IR Inten    --      0.4235                 2.3138                 2.2615

                     16                     17                     18
                      A                      A                      A
 Frequencies --    596.5375               660.3481               720.5737
 Red. masses --      3.7203                 3.4502                 4.7020
 Frc consts  --      0.7800                 0.8864                 1.4384
 IR Inten    --      0.7180                 1.6653                 0.6344

                     19                     20                     21
                      A                      A                      A
 Frequencies --    786.1475               834.0019               838.5540
 Red. masses --      2.9901                 1.7929                 2.6857
 Frc consts  --      1.0888                 0.7347                 1.1127
 IR Inten    --      0.2366                 2.8591                 3.6779

                     22                     23                     24
                      A                      A                      A
 Frequencies --    846.8169               895.7723               901.1927
 Red. masses --      2.2084                 2.6551                 2.1432
 Frc consts  --      0.9330                 1.2553                 1.0255
 IR Inten    --      0.1486                 0.1473                 0.7392

                     25                     26                     27
                      A                      A                      A
 Frequencies --    942.6988               956.4181               968.9291
 Red. masses --      2.4681                 1.9219                 1.5568
 Frc consts  --      1.2923                 1.0358                 0.8611
 IR Inten    --     11.9640                 5.1175                 0.3480

                     28                     29                     30
                      A                      A                      A
 Frequencies --    973.7283              1014.8476              1024.6243
 Red. masses --      2.0359                 1.5470                 1.4395
 Frc consts  --      1.1373                 0.9387                 0.8904
 IR Inten    --      6.6687                13.0839                 2.4079

                     31                     32                     33
                      A                      A                      A
 Frequencies --   1039.2359              1048.9368              1100.2508
 Red. masses --      1.8356                 1.5008                 1.3204
 Frc consts  --      1.1681                 0.9729                 0.9418
 IR Inten    --     28.8663                 9.7018                 0.8644

                     34                     35                     36
                      A                      A                      A
 Frequencies --   1134.8976              1141.2711              1187.6867
 Red. masses --      1.2008                 2.0072                 2.1232
 Frc consts  --      0.9113                 1.5404                 1.7646
 IR Inten    --      4.2031                 2.4875                 1.5209

                     37                     38                     39
                      A                      A                      A
 Frequencies --   1199.6045              1227.4502              1248.1917
 Red. masses --      2.3767                 2.0128                 1.9141
 Frc consts  --      2.0151                 1.7867                 1.7570
 IR Inten    --      2.6639                 0.1651                 3.3310

                     40                     41                     42
                      A                      A                      A
 Frequencies --   1257.1288              1277.9273              1286.6671
 Red. masses --      2.2426                 1.5188                 1.4542
 Frc consts  --      2.0882                 1.4613                 1.4184
 IR Inten    --      2.4972                 0.6515                 0.7513

                     43                     44                     45
                      A                      A                      A
 Frequencies --   1303.9332              1333.9646              1359.8950
 Red. masses --      1.8519                 1.6798                 1.5676
 Frc consts  --      1.8551                 1.7611                 1.7080
 IR Inten    --      1.6602                 3.9965                 3.0743

                     46                     47                     48
                      A                      A                      A
 Frequencies --   1372.4662              1421.9135              1440.8399
 Red. masses --      2.1569                 1.2123                 1.2723
 Frc consts  --      2.3938                 1.4442                 1.5562
 IR Inten    --      3.0977                 3.2627                 2.3718

                     49                     50                     51
                      A                      A                      A
 Frequencies --   1445.1666              1510.5443              1515.7709
 Red. masses --      1.2159                 1.0532                 1.0621
 Frc consts  --      1.4962                 1.4159                 1.4378
 IR Inten    --      7.4248                 1.1612                 1.6741

                     52                     53                     54
                      A                      A                      A
 Frequencies --   1518.5954              1522.8924              1526.9596
 Red. masses --      1.0533                 1.0526                 1.0658
 Frc consts  --      1.4311                 1.4383                 1.4641
 IR Inten    --      2.7247                 3.7384                 5.3907

                     55                     56                     57
                      A                      A                      A
 Frequencies --   1529.6944              1536.3716              1542.7228
 Red. masses --      1.0633                 1.0731                 1.0673
 Frc consts  --      1.4659                 1.4923                 1.4966
 IR Inten    --      0.4773                 7.7921                 8.5925

                     58                     59                     60
                      A                      A                      A
 Frequencies --   1559.3364              1831.6157              3048.6275
 Red. masses --      1.0851                12.3231                 1.0370
 Frc consts  --      1.5546                24.3578                 5.6783
 IR Inten    --      5.6165               169.5437                18.2134

                     61                     62                     63
                      A                      A                      A
 Frequencies --   3049.0132              3053.0310              3057.3340
 Red. masses --      1.0366                 1.0380                 1.0607
 Frc consts  --      5.6776                 5.7006                 5.8414
 IR Inten    --     19.9277                26.1293                35.4589

                     64                     65                     66
                      A                      A                      A
 Frequencies --   3064.6309              3071.3899              3094.6247
 Red. masses --      1.0616                 1.0686                 1.0907
 Frc consts  --      5.8746                 5.9393                 6.1545
 IR Inten    --     27.7316                32.4579                31.4345

                     67                     68                     69
                      A                      A                      A
 Frequencies --   3098.0869              3109.2303              3114.7384
 Red. masses --      1.0989                 1.1046                 1.1023
 Frc consts  --      6.2144                 6.2918                 6.3007
 IR Inten    --     26.9629                13.6669                21.7573

                     70                     71                     72
                      A                      A                      A
 Frequencies --   3117.6769              3120.0594              3122.7038
 Red. masses --      1.1007                 1.1001                 1.1017
 Frc consts  --      6.3033                 6.3100                 6.3294
 IR Inten    --     21.2153                37.9419                15.9389

                     73                     74                     75
                      A                      A                      A
 Frequencies --   3124.6737              3133.0263              3135.4366
 Red. masses --      1.1003                 1.1013                 1.1003
 Frc consts  --      6.3297                 6.3692                 6.3734
 IR Inten    --     33.2558                40.1646                18.5787

 - Thermochemistry -
 -------------------
 Temperature   298.150 Kelvin.  Pressure   1.00000 Atm.
 Atom     1 has atomic number  8 and mass  15.99491

 Molecular mass:   152.12012 amu.
 Principal axes and moments of inertia in atomic units:
                           1         2         3
     Eigenvalues --  1167.060341559.408921894.31690
           X            0.99996   0.00917  -0.00155
           Y           -0.00926   0.99762  -0.06839
           Z            0.00092   0.06840   0.99766
 This molecule is an asymmetric top.
 Rotational symmetry number  1.
 Warning -- assumption of classical behavior for rotation
           may cause significant error
 Rotational temperatures (Kelvin)      0.07422     0.05554     0.04572
 Rotational constants (GHZ):           1.54640     1.15732     0.95271
 Zero-point vibrational energy     636631.7 (Joules/Mol)
                                  152.15862 (Kcal/Mol)
 Warning -- explicit consideration of  16 degrees of freedom as
           vibrations may cause significant error
 Vibrational temperatures:    122.88   257.19   272.46   279.56   299.09
          (Kelvin)            329.33   373.97   419.76   430.44   470.99
                              535.12   609.08   645.60   733.79   751.47
                              858.28   950.09  1036.74  1131.09  1199.94
                             1206.49  1218.38  1288.82  1296.62  1356.33
                             1376.07  1394.07  1400.98  1460.14  1474.21
                             1495.23  1509.19  1583.02  1632.86  1642.03
                             1708.82  1725.96  1766.03  1795.87  1808.73
                             1838.65  1851.23  1876.07  1919.28  1956.59
                             1974.67  2045.82  2073.05  2079.27  2173.34
                             2180.86  2184.92  2191.10  2196.95  2200.89
                             2210.50  2219.63  2243.54  2635.29  4386.30
                             4386.85  4392.63  4398.82  4409.32  4419.05
                             4452.47  4457.46  4473.49  4481.41  4485.64
                             4489.07  4492.87  4495.71  4507.73  4511.19

 Zero-point correction=                           0.242480 (Hartree/Particle)
 Thermal correction to Energy=                    0.253268
 Thermal correction to Enthalpy=                  0.254212
 Thermal correction to Gibbs Free Energy=         0.207448
 Sum of electronic and zero-point Energies=           -465.684060
 Sum of electronic and thermal Energies=              -465.673272
 Sum of electronic and thermal Enthalpies=            -465.672328
 Sum of electronic and thermal Free Energies=         -465.719092

                     E (Thermal)             CV                S
                      KCal/Mol        Cal/Mol-Kelvin    Cal/Mol-Kelvin
 Total                  158.928             43.307             98.424
 Electronic               0.000              0.000              0.000
 Translational            0.889              2.981             40.968
 Rotational               0.889              2.981             29.623
 Vibrational            157.151             37.345             27.832
 Vibration     1          0.601              1.959              3.763
 Vibration     2          0.629              1.868              2.341
 Vibration     3          0.633              1.854              2.234
 Vibration     4          0.635              1.848              2.186
 Vibration     5          0.641              1.829              2.062
 Vibration     6          0.652              1.797              1.888
 Vibration     7          0.668              1.746              1.662
 Vibration     8          0.687              1.689              1.464
 Vibration     9          0.692              1.675              1.422
 Vibration    10          0.711              1.621              1.273
 Vibration    11          0.744              1.530              1.072
 Vibration    12          0.785              1.419              0.881
 Vibration    13          0.808              1.364              0.800
 Vibration    14          0.865              1.228              0.634
 Vibration    15          0.877              1.201              0.605
 Vibration    16          0.954              1.039              0.456

 Normal termination of Gaussian 16 at Thu Feb 22 07:49:14 2024.
