 Gaussian 16, Revision A.03,
 Gaussian 16:  EM64M-G16RevA.03 25-Dec-2016

 ---------------------
 # freq b3lyp/6-31g(d)
 ---------------------

 ---------
 good luck
 ---------
 Symbolic Z-matrix:
 Charge =  0 Multiplicity = 1

                         Standard orientation:
 ---------------------------------------------------------------------
 Center     Atomic      Atomic             Coordinates (Angstroms)
 Number     Number       Type             X           Y           Z
 ---------------------------------------------------------------------
      1          8           0        2.933390   -1.848853    0.000000
      2          6           0        2.075613   -0.987794    0.000000
      3          6           0        1.481301   -0.379785   -1.268280
      4          6           0       -0.048363   -0.615387   -1.260997
      5          6           0        1.772350    1.142067   -1.258907
      6          6           0        1.151423    1.779609   -0.000000
      7          6           0        1.772350    1.142068    1.258907
      8          6           0        1.481301   -0.379784    1.268280
      9          6           0       -0.048364   -0.615386    1.260997
     10          6           0       -0.674302    0.030550    0.000000
     11          6           0       -2.182092   -0.195856    0.000000
     12          9           0       -2.773772    0.351907    1.088292
     13          9           0       -2.773773    0.351914   -1.088289
     14          9           0       -2.496492   -1.512730   -0.000004
     15          6           0       -0.372430    1.549434   -0.000000
     16          1           0        1.940011   -0.865387   -2.134994
     17          1           0       -0.267703   -1.689224   -1.278619
     18          1           0       -0.491344   -0.179706   -2.164595
     19          1           0        1.353980    1.598043   -2.166218
     20          1           0        2.855425    1.317783   -1.280967
     21          1           0        1.350442    2.858522   -0.000001
     22          1           0        1.353980    1.598044    2.166217
     23          1           0        2.855424    1.317784    1.280967
     24          1           0        1.940011   -0.865385    2.134994
     25          1           0       -0.267703   -1.689222    1.278622
     26          1           0       -0.491345   -0.179704    2.164594
     27          1           0       -0.827339    2.015528    0.882222
     28          1           0       -0.827340    2.015527   -0.882223
 ---------------------------------------------------------------------

 SCF Done:  E(RB3LYP) =  -801.777687087     A.U. after   13 cycles

 The electronic state is 1-A.
 Alpha  occ. eigenvalues --  -24.72559 -24.72559 -24.72555 -19.14022 -10.42823
 Alpha  occ. eigenvalues --  -10.27146 -10.22642 -10.20608 -10.20458 -10.20457
 Alpha  occ. eigenvalues --  -10.20377 -10.20376 -10.20001 -10.20000 -10.19948
 Alpha  occ. eigenvalues --   -1.30151  -1.21471  -1.21466  -1.03862  -0.89140
 Alpha  occ. eigenvalues --   -0.80802  -0.79121  -0.77609  -0.69886  -0.68989
 Alpha  occ. eigenvalues --   -0.66057  -0.61652  -0.61616  -0.58953  -0.57678
 Alpha  occ. eigenvalues --   -0.57356  -0.54993  -0.50156  -0.47692  -0.47091
 Alpha  occ. eigenvalues --   -0.46410  -0.45667  -0.45011  -0.44870  -0.44801
 Alpha  occ. eigenvalues --   -0.43313  -0.43269  -0.41710  -0.41011  -0.40504
 Alpha  occ. eigenvalues --   -0.40417  -0.40057  -0.38533  -0.37404  -0.37083
 Alpha  occ. eigenvalues --   -0.35245  -0.34878  -0.34818  -0.31654  -0.31438
 Alpha  occ. eigenvalues --   -0.30842  -0.23774
 Alpha virt. eigenvalues --   -0.01738   0.06264   0.10807   0.11075   0.11940
 Alpha virt. eigenvalues --    0.12005   0.12582   0.12882   0.13190   0.13504
 Alpha virt. eigenvalues --    0.15827   0.16585   0.18254   0.18428   0.18644

 Mulliken charges:
               1
     1  O   -0.453850
     2  C    0.455587
     3  C   -0.171029
     4  C   -0.303990
     5  C   -0.282438
     6  C   -0.100362
     7  C   -0.282438
     8  C   -0.171029
     9  C   -0.303990
    10  C   -0.072372
    11  C    0.854555
    12  F   -0.278069
    13  F   -0.278070
    14  F   -0.277028
    15  C   -0.290306
    16  H    0.150091
    17  H    0.162830
    18  H    0.155817
    19  H    0.142646
    20  H    0.149244
    21  H    0.134039
    22  H    0.142646
    23  H    0.149244
    24  H    0.150091
    25  H    0.162830
    26  H    0.155817
    27  H    0.149766
    28  H    0.149766
 Sum of Mulliken charges =  -0.00000

 Dipole moment (field-independent basis, Debye):
    X=              0.0735    Y=              2.6226    Z=              0.0000  Tot=              2.6236
 Quadrupole moment (field-independent basis, Debye-Ang):
   XX=            -99.5655   YY=            -88.6493   ZZ=            -82.5759
   XY=              7.7377   XZ=             -0.0000   YZ=              0.0000

  Exact polarizability: 110.338  -4.045 103.633   0.000  -0.000 101.528
 Approx polarizability: 156.069 -12.299 159.362   0.000  -0.000 152.384

                      1                      2                      3
                      A                      A                      A
 Frequencies --     69.5657                87.5811               156.2343
 Red. masses --     11.1370                11.6546                 4.8265
 Frc consts  --      0.0318                 0.0527                 0.0694
 IR Inten    --      0.1789                 4.1040                 1.4495

                      4                      5                      6
                      A                      A                      A
 Frequencies --    180.1717               272.2987               286.0910
 Red. masses --      5.3652                 2.3877                 2.7151
 Frc consts  --      0.1026                 0.1043                 0.1309
 IR Inten    --      0.3323                 0.7209                 0.0000

                      7                      8                      9
                      A                      A                      A
 Frequencies --    288.1965               327.8868               359.3854
 Red. masses --      7.2904                 4.8718                 5.5084
 Frc consts  --      0.3568                 0.3086                 0.4192
 IR Inten    --      3.9605                 0.1117                 2.1321

                     10                     11                     12
                      A                      A                      A
 Frequencies --    375.1698               410.4267               421.5507
 Red. masses --      3.8646                 4.0126                 2.8260
 Frc consts  --      0.3205                 0.3982                 0.2959
 IR Inten    --      1.4222                 0.7336                 1.8012

                     13                     14                     15
                      A                      A                      A
 Frequencies --    444.5060               450.7072               473.1532
 Red. masses --      2.2118                 2.1248                 4.4298
 Frc consts  --      0.2575                 0.2543                 0.5843
 IR Inten    --      4.7594                 1.5625                 4.8896

                     16                     17                     18
                      A                      A                      A
 Frequencies --    563.7750               566.4846               617.0605
 Red. masses --     10.9352                 9.4293                 5.3213
 Frc consts  --      2.0478                 1.7828                 1.1938
 IR Inten    --      0.0411                 0.0886                 1.1276

                     19                     20                     21
                      A                      A                      A
 Frequencies --    637.4886               654.9463               716.8161
 Red. masses --      3.5722                 6.9951                 3.9461
 Frc consts  --      0.8553                 1.7679                 1.1946
 IR Inten    --      2.7452                10.8169                 2.2724

                     22                     23                     24
                      A                      A                      A
 Frequencies --    729.9946               788.3672               805.5312
 Red. masses --      6.9349                 3.8278                 2.9294
 Frc consts  --      2.1774                 1.4017                 1.1199
 IR Inten    --      3.9797                 0.6855                 0.7231

                     25                     26                     27
                      A                      A                      A
 Frequencies --    858.5037               885.3423               902.6238
 Red. masses --      2.6705                 3.6455                 1.5734
 Frc consts  --      1.1597                 1.6836                 0.7553
 IR Inten    --      2.0216                 8.0543                 1.8779

                     28                     29                     30
                      A                      A                      A
 Frequencies --    908.3737               915.0788               955.1785
 Red. masses --      1.5777                 2.3624                 2.2483
 Frc consts  --      0.7670                 1.1655                 1.2086
 IR Inten    --      1.1240                11.4333                 6.0411

                     31                     32                     33
                      A                      A                      A
 Frequencies --    983.7994               987.1792              1021.1704
 Red. masses --      2.2444                 2.2166                 2.0392
 Frc consts  --      1.2798                 1.2727                 1.2529
 IR Inten    --      0.1147                 0.9395                 1.0588

                     34                     35                     36
                      A                      A                      A
 Frequencies --   1052.9210              1064.7502              1073.7205
 Red. masses --      2.2336                 6.3574                 1.9411
 Frc consts  --      1.4590                 4.2464                 1.3185
 IR Inten    --      1.0243                48.6248                 8.8293

                     37                     38                     39
                      A                      A                      A
 Frequencies --   1079.4052              1096.4148              1123.7157
 Red. masses --      1.8443                 1.7756                 1.5077
 Frc consts  --      1.2661                 1.2576                 1.1217
 IR Inten    --     27.1457                 5.0293                10.0306

                     40                     41                     42
                      A                      A                      A
 Frequencies --   1138.0187              1161.0443              1190.1509
 Red. masses --      1.3267                 1.1329                 2.0998
 Frc consts  --      1.0123                 0.8998                 1.7524
 IR Inten    --      6.3928                 9.7250                95.7343

                     43                     44                     45
                      A                      A                      A
 Frequencies --   1199.1621              1226.5716              1249.2456
 Red. masses --      3.9947                 1.6769                 2.0965
 Frc consts  --      3.3845                 1.4864                 1.9277
 IR Inten    --    119.7221                72.8858                56.2648

                     46                     47                     48
                      A                      A                      A
 Frequencies --   1272.5019              1285.5449              1288.1799
 Red. masses --      1.5874                 1.9300                 3.1355
 Frc consts  --      1.5144                 1.8792                 3.0656
 IR Inten    --      0.6109                10.9163               150.0984

                     49                     50                     51
                      A                      A                      A
 Frequencies --   1309.2899              1317.6889              1330.1703
 Red. masses --      1.4827                 1.8825                 1.6160
 Frc consts  --      1.4975                 1.9258                 1.6846
 IR Inten    --      1.6567                38.3150                 6.5183

                     52                     53                     54
                      A                      A                      A
 Frequencies --   1350.2390              1360.8487              1362.3651
 Red. masses --      1.5476                 1.4511                 1.9678
 Frc consts  --      1.6623                 1.5833                 2.1518
 IR Inten    --     15.3835                 1.9358                28.3355

                     55                     56                     57
                      A                      A                      A
 Frequencies --   1380.8375              1389.8079              1395.8133
 Red. masses --      1.6371                 1.4769                 1.5209
 Frc consts  --      1.8392                 1.6808                 1.7459
 IR Inten    --      3.0904                 0.3807                 1.8220

                     58                     59                     60
                      A                      A                      A
 Frequencies --   1400.1361              1417.4748              1511.8892
 Red. masses --      1.5670                 1.5152                 1.0848
 Frc consts  --      1.8099                 1.7937                 1.4610
 IR Inten    --      2.4303                 0.6599                 0.5158

                     61                     62                     63
                      A                      A                      A
 Frequencies --   1519.7019              1526.2256              1528.2478
 Red. masses --      1.0873                 1.0899                 1.0934
 Frc consts  --      1.4795                 1.4958                 1.5046
 IR Inten    --      4.9473                11.6309                 8.0612

                     64                     65                     66
                      A                      A                      A
 Frequencies --   1548.1889              1824.3486              3037.7203
 Red. masses --      1.0912                11.2751                 1.0599
 Frc consts  --      1.5411                22.1098                 5.7624
 IR Inten    --      2.5972               215.6550                35.5693

                     67                     68                     69
                      A                      A                      A
 Frequencies --   3037.8255              3050.4519              3055.1045
 Red. masses --      1.0639                 1.0654                 1.0593
 Frc consts  --      5.7849                 5.8411                 5.8252
 IR Inten    --      9.7715                 8.3458                21.0886

                     70                     71                     72
                      A                      A                      A
 Frequencies --   3058.0514              3064.2622              3076.7653
 Red. masses --      1.0640                 1.0735                 1.1052
 Frc consts  --      5.8624                 5.9389                 6.1645
 IR Inten    --     40.3880                55.3220                 7.5326

                     73                     74                     75
                      A                      A                      A
 Frequencies --   3080.7967              3094.8237              3095.7727
 Red. masses --      1.1038                 1.1045                 1.0873
 Frc consts  --      6.1727                 6.2326                 6.1394
 IR Inten    --     49.6483                 2.2841                50.9289

                     76                     77                     78
                      A                      A                      A
 Frequencies --   3097.4447              3098.8308              3100.8279
 Red. masses --      1.0871                 1.1052                 1.1047
 Frc consts  --      6.1448                 6.2527                 6.2583
 IR Inten    --     13.8376                16.2115                29.8882

 - Thermochemistry -
 -------------------
 Temperature   298.150 Kelvin.  Pressure   1.00000 Atm.
 Atom     1 has atomic number  8 and mass  15.99491

 Molecular mass:   218.09185 amu.
 Principal axes and moments of inertia in atomic units:
                           1         2         3
     Eigenvalues --  1620.337343694.490123914.48161
           X            0.99988   0.01524  -0.00000
           Y           -0.01524   0.99988   0.00000
           Z            0.00000  -0.00000   1.00000
 This molecule is an asymmetric top.
 Rotational symmetry number  1.
 Warning -- assumption of classical behavior for rotation
           may cause significant error
 Rotational temperatures (Kelvin)      0.05345     0.02344     0.02213
 Rotational constants (GHZ):           1.11381     0.48850     0.46104
 Zero-point vibrational energy     604257.3 (Joules/Mol)
                                  144.42097 (Kcal/Mol)
 Warning -- explicit consideration of  18 degrees of freedom as
           vibrations may cause significant error
 Vibrational temperatures:    100.09   126.01   224.79   259.23   391.78
          (Kelvin)            411.62   414.65   471.76   517.08   539.79
                              590.51   606.52   639.55   648.47   680.76
                              811.15   815.04   887.81   917.20   942.32
                             1031.34  1050.30  1134.28  1158.98  1235.20
                             1273.81  1298.67  1306.95  1316.59  1374.29
                             1415.47  1420.33  1469.24  1514.92  1531.94
                             1544.84  1553.02  1577.50  1616.78  1637.36
                             1670.48  1712.36  1725.33  1764.76  1797.39
                             1830.85  1849.61  1853.40  1883.78  1895.86
                             1913.82  1942.69  1957.96  1960.14  1986.72
                             1999.62  2008.26  2014.48  2039.43  2175.27
                             2186.51  2195.90  2198.81  2227.50  2624.83
                             4370.60  4370.75  4388.92  4395.61  4399.85
                             4408.79  4426.78  4432.58  4452.76  4454.13
                             4456.53  4458.53  4461.40

 Zero-point correction=                           0.230149 (Hartree/Particle)
 Thermal correction to Energy=                    0.241528
 Thermal correction to Enthalpy=                  0.242472
 Thermal correction to Gibbs Free Energy=         0.193122
 Sum of electronic and zero-point Energies=           -801.547538
 Sum of electronic and thermal Energies=              -801.536159
 Sum of electronic and thermal Enthalpies=            -801.535215
 Sum of electronic and thermal Free Energies=         -801.584565

                     E (Thermal)             CV                S
                      KCal/Mol        Cal/Mol-Kelvin    Cal/Mol-Kelvin
 Total                  151.561             47.655            103.866
 Electronic               0.000              0.000              0.000
 Translational            0.889              2.981             42.042
 Rotational               0.889              2.981             31.528
 Vibrational            149.784             41.693             30.296
 Vibration     1          0.598              1.969              4.166
 Vibration     2          0.601              1.958              3.713
 Vibration     3          0.620              1.896              2.595
 Vibration     4          0.629              1.867              2.327
 Vibration     5          0.675              1.724              1.582
 Vibration     6          0.684              1.700              1.497
 Vibration     7          0.685              1.696              1.485
 Vibration     8          0.711              1.620              1.270
 Vibration     9          0.734              1.556              1.125
 Vibration    10          0.746              1.523              1.059
 Vibration    11          0.775              1.448              0.925
 Vibration    12          0.784              1.423              0.887
 Vibration    13          0.804              1.373              0.813
 Vibration    14          0.809              1.359              0.794
 Vibration    15          0.830              1.310              0.729
 Vibration    16          0.920              1.110              0.516
 Vibration    17          0.922              1.104              0.511
 Vibration    18          0.977              0.996              0.421

 Normal termination of Gaussian 16 at Sat Feb 24 00:00:00 2024.
