 Gaussian 16, Revision A.03,
 Gaussian 16:  EM64M-G16RevA.03 25-Dec-2016

 ---------------------
 # freq b3lyp/6-31g(d)
 ---------------------

 ---------
 good luck
 ---------
 Symbolic Z-matrix:
 Charge =  0 Multiplicity = 1

                         Standard orientation:
 ---------------------------------------------------------------------
 Center     Atomic      Atomic             Coordinates (Angstroms)
 Number     Number       Type             X           Y           Z
 ---------------------------------------------------------------------
      1          8           0        1.591304    1.848987   -0.502277
      2          6           0        1.057918    0.848285   -0.075219
      3          6           0       -0.146964    0.803824    0.894072
      4          6           0       -0.329688   -0.723200    1.082213
      5          6           0        1.095236   -1.292248    0.939883
      6          6           0        1.384730   -0.603743   -0.412045
      7          6           0        0.178736   -1.101869   -1.261619
      8          6           0       -1.031820   -1.068074   -0.265365
      9          6           0       -2.030896    0.085705   -0.508553
     10          6           0       -1.431780    1.328931    0.213649
     11          1           0        0.105732    1.350278    1.809900
     12          1           0       -0.885928   -1.012715    1.978209
     13          1           0        1.771275   -0.976198    1.743268
     14          1           0        1.121152   -2.385869    0.872202
     15          1           0        2.364433   -0.741007   -0.872194
     16          1           0        0.012652   -0.492167   -2.156311
     17          1           0        0.379435   -2.126357   -1.594830
     18          1           0       -1.537897   -2.038413   -0.246458
     19          1           0       -2.198694    0.261125   -1.577073
     20          1           0       -3.005092   -0.169772   -0.075865
     21          1           0       -1.201808    2.154443   -0.467959
     22          1           0       -2.128515    1.719080    0.963239
 ---------------------------------------------------------------------

 SCF Done:  E(RB3LYP) =  -425.400738724     A.U. after   13 cycles

 The electronic state is 1-A.
 Alpha  occ. eigenvalues --  -19.13362 -10.26388 -10.19337 -10.19269 -10.19245
 Alpha  occ. eigenvalues --  -10.19190 -10.19082 -10.18988 -10.18550 -10.18357
 Alpha  occ. eigenvalues --   -1.03219  -0.88694  -0.78784  -0.74603  -0.70463
 Alpha  occ. eigenvalues --   -0.66990  -0.62433  -0.56880  -0.54647  -0.52174
 Alpha  occ. eigenvalues --   -0.49151  -0.47389  -0.45819  -0.44333  -0.42167
 Alpha  occ. eigenvalues --   -0.41330  -0.38563  -0.37473  -0.35822  -0.34965
 Alpha  occ. eigenvalues --   -0.34719  -0.33213  -0.32735  -0.32073  -0.31776
 Alpha  occ. eigenvalues --   -0.30928  -0.22914
 Alpha virt. eigenvalues --   -0.01118   0.07449   0.10018   0.11732   0.12770
 Alpha virt. eigenvalues --    0.13703   0.15040   0.16093   0.16534   0.16934
 Alpha virt. eigenvalues --    0.17744   0.18182   0.18794   0.19266   0.20411

 Mulliken charges:
               1
     1  O   -0.462487
     2  C    0.453083
     3  C   -0.177160
     4  C   -0.127403
     5  C   -0.277827
     6  C   -0.173151
     7  C   -0.290653
     8  C   -0.100895
     9  C   -0.277558
    10  C   -0.277995
    11  H    0.152294
    12  H    0.124495
    13  H    0.144915
    14  H    0.140377
    15  H    0.138712
    16  H    0.151835
    17  H    0.148853
    18  H    0.127471
    19  H    0.141093
    20  H    0.138447
    21  H    0.160977
    22  H    0.142578
 Sum of Mulliken charges =  -0.00000

 Dipole moment (field-independent basis, Debye):
    X=             -1.5933    Y=             -2.4589    Z=              0.8993  Tot=              3.0649
 Quadrupole moment (field-independent basis, Debye-Ang):
   XX=            -61.5756   YY=            -63.7459   ZZ=            -58.3097
   XY=             -4.9269   XZ=              1.2896   YZ=              2.2143

  Exact polarizability:  87.929  -0.742  87.697  -1.314   0.139  78.654
 Approx polarizability: 122.673   5.701 131.625  -4.405  -3.546 118.423

                      1                      2                      3
                      A                      A                      A
 Frequencies --     88.4204               173.4558               251.6126
 Red. masses --      3.0463                 2.6375                 2.9753
 Frc consts  --      0.0140                 0.0468                 0.1110
 IR Inten    --      2.3081                 2.0011                 1.7350

                      4                      5                      6
                      A                      A                      A
 Frequencies --    356.0616               409.9309               465.6142
 Red. masses --      2.0768                 1.9649                 3.7790
 Frc consts  --      0.1551                 0.1945                 0.4827
 IR Inten    --      0.0226                 0.2958                 6.5861

                      7                      8                      9
                      A                      A                      A
 Frequencies --    497.0458               547.0150               652.0246
 Red. masses --      4.7160                 4.7198                 4.3741
 Frc consts  --      0.6865                 0.8321                 1.0956
 IR Inten    --      1.7140                 0.6708                 1.4176

                     10                     11                     12
                      A                      A                      A
 Frequencies --    693.5414               752.2103               760.4259
 Red. masses --      3.9300                 2.5157                 4.4646
 Frc consts  --      1.1138                 0.8387                 1.5211
 IR Inten    --      0.4555                 7.3992                 1.6917

                     13                     14                     15
                      A                      A                      A
 Frequencies --    778.8730               827.3596               863.6265
 Red. masses --      2.3993                 1.8690                 2.3896
 Frc consts  --      0.8576                 0.7538                 1.0501
 IR Inten    --      3.2097                 0.4379                 0.3023

                     16                     17                     18
                      A                      A                      A
 Frequencies --    893.6989               903.8751               917.8267
 Red. masses --      2.7870                 2.5656                 2.4548
 Frc consts  --      1.3115                 1.2350                 1.2184
 IR Inten    --      2.2285                 1.5214                 9.8187

                     19                     20                     21
                      A                      A                      A
 Frequencies --    934.1348               954.3563               980.5014
 Red. masses --      2.3212                 2.4397                 1.6575
 Frc consts  --      1.1934                 1.3092                 0.9389
 IR Inten    --      2.0581                 2.2185                 0.9229

                     22                     23                     24
                      A                      A                      A
 Frequencies --    989.0908              1007.2345              1022.6476
 Red. masses --      2.2930                 1.6259                 1.6351
 Frc consts  --      1.3217                 0.9718                 1.0075
 IR Inten    --      0.4864                 1.6028                 1.4372

                     25                     26                     27
                      A                      A                      A
 Frequencies --   1044.4611              1084.4112              1135.6595
 Red. masses --      1.7678                 1.7121                 1.0756
 Frc consts  --      1.1363                 1.1862                 0.8173
 IR Inten    --     12.4274                 4.9752                 0.6434

                     28                     29                     30
                      A                      A                      A
 Frequencies --   1156.9558              1165.4355              1178.9153
 Red. masses --      2.1048                 1.4296                 1.2201
 Frc consts  --      1.6600                 1.1441                 0.9991
 IR Inten    --     11.0103                 0.3914                 1.7743

                     31                     32                     33
                      A                      A                      A
 Frequencies --   1194.7783              1215.3637              1234.3212
 Red. masses --      1.6398                 1.5662                 1.6979
 Frc consts  --      1.3791                 1.3631                 1.5241
 IR Inten    --     14.7949                 1.2009                 1.3243

                     34                     35                     36
                      A                      A                      A
 Frequencies --   1256.0046              1282.5978              1298.9340
 Red. masses --      1.5842                 1.2760                 1.4259
 Frc consts  --      1.4724                 1.2367                 1.4174
 IR Inten    --      1.1141                 0.1285                 1.3135

                     37                     38                     39
                      A                      A                      A
 Frequencies --   1307.2638              1316.9815              1324.2850
 Red. masses --      1.3719                 1.5854                 1.5857
 Frc consts  --      1.3814                 1.6201                 1.6385
 IR Inten    --      0.0653                 4.5553                 1.0561

                     40                     41                     42
                      A                      A                      A
 Frequencies --   1337.5683              1355.7555              1358.3877
 Red. masses --      1.5468                 1.4765                 1.4740
 Frc consts  --      1.6305                 1.5990                 1.6025
 IR Inten    --      2.2044                 2.4649                 1.6927

                     43                     44                     45
                      A                      A                      A
 Frequencies --   1378.7263              1517.0146              1523.6324
 Red. masses --      1.5416                 1.0834                 1.0817
 Frc consts  --      1.7266                 1.4689                 1.4795
 IR Inten    --      0.0563                 1.6871                 1.9866

                     46                     47                     48
                      A                      A                      A
 Frequencies --   1536.8982              1543.7806              1846.2798
 Red. masses --      1.1008                 1.0918                12.1813
 Frc consts  --      1.5320                 1.5331                24.4647
 IR Inten    --      3.5416                 2.7512               219.1705

                     49                     50                     51
                      A                      A                      A
 Frequencies --   3055.1621              3059.6897              3061.1466
 Red. masses --      1.0629                 1.0597                 1.0610
 Frc consts  --      5.8451                 5.8452                 5.8578
 IR Inten    --     19.6934                29.4757                20.5134

                     52                     53                     54
                      A                      A                      A
 Frequencies --   3068.1182              3081.6008              3084.6355
 Red. masses --      1.0655                 1.0826                 1.0846
 Frc consts  --      5.9095                 6.0574                 6.0804
 IR Inten    --     46.3118                42.1467                23.3018

                     55                     56                     57
                      A                      A                      A
 Frequencies --   3089.8172              3104.2671              3106.9153
 Red. masses --      1.1044                 1.1074                 1.1052
 Frc consts  --      6.2119                 6.2876                 6.2857
 IR Inten    --      5.8547                17.6562                27.1443

                     58                     59                     60
                      A                      A                      A
 Frequencies --   3109.6124              3114.3193              3143.8883
 Red. masses --      1.0912                 1.1029                 1.0892
 Frc consts  --      6.2169                 6.3028                 6.3431
 IR Inten    --     17.8273                71.4164                22.5301

 - Thermochemistry -
 -------------------
 Temperature   298.150 Kelvin.  Pressure   1.00000 Atm.
 Atom     1 has atomic number  8 and mass  15.99491

 Molecular mass:   136.08882 amu.
 Principal axes and moments of inertia in atomic units:
                           1         2         3
     Eigenvalues --   937.999181079.203721397.97446
           X            0.97265  -0.23164   0.01685
           Y            0.23119   0.97258   0.02542
           Z           -0.02227  -0.02083   0.99954
 This molecule is an asymmetric top.
 Rotational symmetry number  1.
 Warning -- assumption of classical behavior for rotation
           may cause significant error
 Rotational temperatures (Kelvin)      0.09234     0.08026     0.06196
 Rotational constants (GHZ):           1.92403     1.67229     1.29097
 Zero-point vibrational energy     510770.6 (Joules/Mol)
                                  122.07709 (Kcal/Mol)
 Warning -- explicit consideration of   8 degrees of freedom as
           vibrations may cause significant error
 Vibrational temperatures:    127.22   249.56   362.01   512.29   589.80
          (Kelvin)            669.92   715.14   787.03   938.12   997.85
                             1082.26  1094.08  1120.62  1190.39  1242.57
                             1285.83  1300.47  1320.55  1344.01  1373.11
                             1410.72  1423.08  1449.19  1471.36  1502.75
                             1560.23  1633.96  1664.60  1676.80  1696.20
                             1719.02  1748.64  1775.91  1807.11  1845.37
                             1868.88  1880.86  1894.84  1905.35  1924.46
                             1950.63  1954.42  1983.68  2182.65  2192.17
                             2211.25  2221.16  2656.38  4395.70  4402.21
                             4404.31  4414.34  4433.74  4438.10  4445.56
                             4466.35  4470.16  4474.04  4480.81  4523.35

 Zero-point correction=                           0.194542 (Hartree/Particle)
 Thermal correction to Energy=                    0.201897
 Thermal correction to Enthalpy=                  0.202841
 Thermal correction to Gibbs Free Energy=         0.162579
 Sum of electronic and zero-point Energies=           -425.206196
 Sum of electronic and thermal Energies=              -425.198842
 Sum of electronic and thermal Enthalpies=            -425.197897
 Sum of electronic and thermal Free Energies=         -425.238160

                     E (Thermal)             CV                S
                      KCal/Mol        Cal/Mol-Kelvin    Cal/Mol-Kelvin
 Total                  126.692             31.055             84.740
 Electronic               0.000              0.000              0.000
 Translational            0.889              2.981             40.637
 Rotational               0.889              2.981             28.739
 Vibrational            124.915             25.093             15.365
 Vibration     1          0.601              1.957              3.695
 Vibration     2          0.627              1.875              2.398
 Vibration     3          0.664              1.760              1.719
 Vibration     4          0.732              1.563              1.139
 Vibration     5          0.774              1.449              0.927
 Vibration     6          0.823              1.326              0.750
 Vibration     7          0.853              1.257              0.666
 Vibration     8          0.902              1.146              0.550

 Normal termination of Gaussian 16 at Wed Feb 21 19:09:42 2024.
