 Gaussian 16, Revision A.03,
 Gaussian 16:  EM64M-G16RevA.03 25-Dec-2016

 ---------------------
 # freq b3lyp/6-31g(d)
 ---------------------

 ---------
 good luck
 ---------
 Symbolic Z-matrix:
 Charge =  0 Multiplicity = 1

                         Standard orientation:
 ---------------------------------------------------------------------
 Center     Atomic      Atomic             Coordinates (Angstroms)
 Number     Number       Type             X           Y           Z
 ---------------------------------------------------------------------
      1          8           0       -2.312375    1.186547   -0.870967
      2          6           0       -1.450892    0.502608   -0.370980
      3          6           0       -0.890284   -0.865611   -0.774339
      4          6           0        0.598515   -0.455317   -0.978339
      5          6           0        1.587735   -1.619596   -1.084917
      6          6           0        0.857096    0.629088    0.173006
      7          6           0        1.970546    0.256318    1.164651
      8          6           0        1.214913    1.983340   -0.468856
      9          6           0       -0.553649    0.740682    0.849816
     10          6           0       -0.906660   -0.530773    1.656558
     11          6           0       -1.079419   -1.636949    0.554586
     12          1           0       -1.354449   -1.324340   -1.649577
     13          1           0        0.643979    0.079337   -1.936735
     14          1           0        1.632782   -2.232447   -0.179512
     15          1           0        2.601587   -1.254936   -1.284720
     16          1           0        1.306915   -2.277484   -1.915889
     17          1           0        1.843975   -0.734522    1.609576
     18          1           0        2.948775    0.269232    0.670593
     19          1           0        2.008271    0.985586    1.983079
     20          1           0        2.127344    1.897455   -1.071986
     21          1           0        1.390732    2.749432    0.296450
     22          1           0        0.412862    2.343702   -1.123321
     23          1           0       -0.719745    1.681819    1.378418
     24          1           0       -1.845180   -0.374241    2.199519
     25          1           0       -0.147653   -0.788037    2.399317
     26          1           0       -2.078465   -2.082666    0.598186
     27          1           0       -0.360130   -2.453006    0.667211
 ---------------------------------------------------------------------

 SCF Done:  E(RB3LYP) =  -465.911041788     A.U. after   13 cycles

 The electronic state is 1-A.
 Alpha  occ. eigenvalues --  -19.13880 -10.26485 -10.20659 -10.19767 -10.19155
 Alpha  occ. eigenvalues --  -10.19123 -10.19038 -10.18910 -10.18129 -10.17899
 Alpha  occ. eigenvalues --  -10.17574  -1.03658  -0.87721  -0.78687  -0.76175
 Alpha  occ. eigenvalues --   -0.70681  -0.69523  -0.67948  -0.61087  -0.58644
 Alpha  occ. eigenvalues --   -0.53276  -0.51905  -0.49217  -0.47187  -0.44814
 Alpha  occ. eigenvalues --   -0.43948  -0.42992  -0.41839  -0.40422  -0.39505
 Alpha  occ. eigenvalues --   -0.38778  -0.38083  -0.37106  -0.36405  -0.35831
 Alpha  occ. eigenvalues --   -0.35356  -0.35022  -0.33407  -0.33028  -0.30164
 Alpha  occ. eigenvalues --   -0.29434  -0.22617
 Alpha virt. eigenvalues --   -0.00676   0.06857   0.10184   0.10425   0.12413
 Alpha virt. eigenvalues --    0.12734   0.13926   0.14349   0.15162   0.16034
 Alpha virt. eigenvalues --    0.16438   0.17025   0.17743   0.18109   0.18907

 Mulliken charges:
               1
     1  O   -0.450137
     2  C    0.425629
     3  C   -0.163117
     4  C   -0.107287
     5  C   -0.456563
     6  C    0.097208
     7  C   -0.461546
     8  C   -0.466279
     9  C   -0.162315
    10  C   -0.293594
    11  C   -0.288658
    12  H    0.135723
    13  H    0.139582
    14  H    0.146883
    15  H    0.148017
    16  H    0.147476
    17  H    0.145020
    18  H    0.145289
    19  H    0.144798
    20  H    0.141747
    21  H    0.142719
    22  H    0.160109
    23  H    0.133399
    24  H    0.151221
    25  H    0.147959
    26  H    0.151688
    27  H    0.145027
 Sum of Mulliken charges =  -0.00000

 Dipole moment (field-independent basis, Debye):
    X=              2.2547    Y=             -1.6196    Z=              1.1142  Tot=              2.9914
 Quadrupole moment (field-independent basis, Debye-Ang):
   XX=            -73.6480   YY=            -69.1482   ZZ=            -67.6112
   XY=              4.7095   XZ=             -3.6341   YZ=              1.9987

  Exact polarizability: 102.827  -0.537  98.671   0.547   1.019  93.732
 Approx polarizability: 147.233  -7.561 141.657   5.411  -2.504 138.672

                      1                      2                      3
                      A                      A                      A
 Frequencies --     63.1907               123.2950               216.7832
 Red. masses --      2.8387                 6.8813                 1.1211
 Frc consts  --      0.0067                 0.0616                 0.0310
 IR Inten    --      0.3604                 3.0201                 0.0481

                      4                      5                      6
                      A                      A                      A
 Frequencies --    241.9333               255.3990               270.3594
 Red. masses --      2.6317                 1.4134                 1.5748
 Frc consts  --      0.0908                 0.0543                 0.0678
 IR Inten    --      0.3632                 0.2121                 0.1711

                      7                      8                      9
                      A                      A                      A
 Frequencies --    277.4108               292.7785               304.5235
 Red. masses --      1.4016                 2.1182                 1.6749
 Frc consts  --      0.0636                 0.1070                 0.0915
 IR Inten    --      0.1556                 0.0856                 0.1120

                     10                     11                     12
                      A                      A                      A
 Frequencies --    359.8582               377.1809               420.6497
 Red. masses --      1.9374                 2.7252                 3.1840
 Frc consts  --      0.1478                 0.2284                 0.3319
 IR Inten    --      0.0262                 1.1382                 0.7081

                     13                     14                     15
                      A                      A                      A
 Frequencies --    478.2516               508.7910               529.4904
 Red. masses --      2.9797                 3.6283                 3.2057
 Frc consts  --      0.4016                 0.5534                 0.5295
 IR Inten    --      1.0584                 3.1968                 2.9316

                     16                     17                     18
                      A                      A                      A
 Frequencies --    613.7155               665.3968               736.7432
 Red. masses --      4.2949                 3.2443                 3.3418
 Frc consts  --      0.9531                 0.8463                 1.0687
 IR Inten    --      1.0258                 0.5009                 7.3818

                     19                     20                     21
                      A                      A                      A
 Frequencies --    780.0670               791.6082               802.6119
 Red. masses --      2.9641                 2.5795                 2.1576
 Frc consts  --      1.0627                 0.9524                 0.8189
 IR Inten    --      2.3859                 1.1238                 2.1894

                     22                     23                     24
                      A                      A                      A
 Frequencies --    874.2895               892.5100               930.0136
 Red. masses --      1.7374                 4.2369                 2.1167
 Frc consts  --      0.7825                 1.9885                 1.0787
 IR Inten    --      0.9364                 2.0234                 4.7041

                     25                     26                     27
                      A                      A                      A
 Frequencies --    950.2420               956.3996               975.9188
 Red. masses --      2.2137                 1.5939                 1.7901
 Frc consts  --      1.1777                 0.8590                 1.0045
 IR Inten    --      2.1533                 0.7565                 0.2802

                     28                     29                     30
                      A                      A                      A
 Frequencies --   1012.4660              1021.1261              1039.2293
 Red. masses --      1.6985                 1.4231                 1.7838
 Frc consts  --      1.0258                 0.8743                 1.1351
 IR Inten    --      0.0191                 0.1446                 1.5272

                     31                     32                     33
                      A                      A                      A
 Frequencies --   1055.8708              1099.0167              1106.7072
 Red. masses --      1.6245                 1.9645                 2.1687
 Frc consts  --      1.0670                 1.3980                 1.5650
 IR Inten    --      1.1856                 3.8571                 4.5374

                     34                     35                     36
                      A                      A                      A
 Frequencies --   1131.6608              1168.4736              1193.1241
 Red. masses --      1.2391                 2.2236                 1.5546
 Frc consts  --      0.9350                 1.7887                 1.3039
 IR Inten    --      3.3736                34.2194                 1.9072

                     37                     38                     39
                      A                      A                      A
 Frequencies --   1201.0421              1203.8484              1231.1804
 Red. masses --      1.9073                 2.0688                 1.8698
 Frc consts  --      1.6210                 1.7665                 1.6699
 IR Inten    --      1.1792                 4.2837                 4.1384

                     40                     41                     42
                      A                      A                      A
 Frequencies --   1250.0760              1273.9508              1292.8624
 Red. masses --      1.9263                 1.3652                 1.6351
 Frc consts  --      1.7736                 1.3054                 1.6103
 IR Inten    --      3.0592                 1.4492                 0.9680

                     43                     44                     45
                      A                      A                      A
 Frequencies --   1308.0611              1337.3973              1348.2556
 Red. masses --      1.7543                 1.3952                 1.4791
 Frc consts  --      1.7685                 1.4703                 1.5842
 IR Inten    --      3.1246                 1.4012                 1.4782

                     46                     47                     48
                      A                      A                      A
 Frequencies --   1368.3110              1397.9001              1430.3189
 Red. masses --      1.4219                 1.3241                 1.2540
 Frc consts  --      1.5686                 1.5245                 1.5115
 IR Inten    --      0.4275                 3.5889                 4.4822

                     49                     50                     51
                      A                      A                      A
 Frequencies --   1438.9800              1454.3309              1510.6696
 Red. masses --      1.2351                 1.2142                 1.0573
 Frc consts  --      1.5069                 1.5131                 1.4216
 IR Inten    --      5.5364                 3.8624                 3.8072

                     52                     53                     54
                      A                      A                      A
 Frequencies --   1516.0412              1523.2744              1529.4984
 Red. masses --      1.0496                 1.0553                 1.0505
 Frc consts  --      1.4213                 1.4427                 1.4479
 IR Inten    --      0.4320                 3.6733                 3.0044

                     55                     56                     57
                      A                      A                      A
 Frequencies --   1533.8530              1536.4840              1544.3115
 Red. masses --      1.0647                 1.0594                 1.0545
 Frc consts  --      1.4759                 1.4736                 1.4817
 IR Inten    --      1.1092                 2.3840                12.6243

                     58                     59                     60
                      A                      A                      A
 Frequencies --   1556.6300              1867.4052              3028.3794
 Red. masses --      1.0707                12.0938                 1.0825
 Frc consts  --      1.5285                24.8480                 5.8494
 IR Inten    --      3.4142               257.0539                14.5066

                     61                     62                     63
                      A                      A                      A
 Frequencies --   3038.1079              3048.2108              3053.8254
 Red. masses --      1.0371                 1.0368                 1.0381
 Frc consts  --      5.6400                 5.6761                 5.7042
 IR Inten    --     28.5713                15.1236                28.0478

                     64                     65                     66
                      A                      A                      A
 Frequencies --   3069.2015              3079.9989              3101.2200
 Red. masses --      1.0654                 1.0626                 1.1025
 Frc consts  --      5.9132                 5.9392                 6.2472
 IR Inten    --     24.8295                40.4608                 3.7950

                     67                     68                     69
                      A                      A                      A
 Frequencies --   3106.9957              3108.7369              3111.9883
 Red. masses --      1.1020                 1.1031                 1.1014
 Frc consts  --      6.2676                 6.2812                 6.2846
 IR Inten    --     37.3151                13.4772                 8.9665

                     70                     71                     72
                      A                      A                      A
 Frequencies --   3113.2154              3124.0961              3125.4938
 Red. masses --      1.1018                 1.0997                 1.1025
 Frc consts  --      6.2915                 6.3239                 6.3457
 IR Inten    --     33.8038                 6.8332                44.8772

                     73                     74                     75
                      A                      A                      A
 Frequencies --   3127.6571              3132.1870              3137.0412
 Red. masses --      1.0884                 1.0893                 1.0986
 Frc consts  --      6.2728                 6.2963                 6.3697
 IR Inten    --     35.1345                24.7012                50.1267

 - Thermochemistry -
 -------------------
 Temperature   298.150 Kelvin.  Pressure   1.00000 Atm.
 Atom     1 has atomic number  8 and mass  15.99491

 Molecular mass:   152.12012 amu.
 Principal axes and moments of inertia in atomic units:
                           1         2         3
     Eigenvalues --  1266.378261593.083091818.58452
           X            0.99664   0.07524  -0.03252
           Y           -0.07426   0.99678   0.03031
           Z            0.03469  -0.02779   0.99901
 This molecule is an asymmetric top.
 Rotational symmetry number  1.
 Warning -- assumption of classical behavior for rotation
           may cause significant error
 Rotational temperatures (Kelvin)      0.06839     0.05437     0.04763
 Rotational constants (GHZ):           1.42512     1.13286     0.99239
 Zero-point vibrational energy     638076.9 (Joules/Mol)
                                  152.50403 (Kcal/Mol)
 Warning -- explicit consideration of  16 degrees of freedom as
           vibrations may cause significant error
 Vibrational temperatures:     90.92   177.39   311.90   348.09   367.46
          (Kelvin)            388.99   399.13   421.24   438.14   517.76
                              542.68   605.22   688.10   732.04   761.82
                              883.00   957.36  1060.01  1122.34  1138.95
                             1154.78  1257.91  1284.12  1338.08  1367.19
                             1376.05  1404.13  1456.71  1469.17  1495.22
                             1519.16  1581.24  1592.30  1628.21  1681.17
                             1716.64  1728.03  1732.07  1771.39  1798.58
                             1832.93  1860.14  1882.01  1924.22  1939.84
                             1968.69  2011.27  2057.91  2070.37  2092.46
                             2173.52  2181.25  2191.65  2200.61  2206.87
                             2210.66  2221.92  2239.64  2686.78  4357.16
                             4371.16  4385.70  4393.77  4415.90  4431.43
                             4461.96  4470.27  4472.78  4477.46  4479.22
                             4494.88  4496.89  4500.00  4506.52  4513.50

 Zero-point correction=                           0.243031 (Hartree/Particle)
 Thermal correction to Energy=                    0.253596
 Thermal correction to Enthalpy=                  0.254540
 Thermal correction to Gibbs Free Energy=         0.207975
 Sum of electronic and zero-point Energies=           -465.668011
 Sum of electronic and thermal Energies=              -465.657446
 Sum of electronic and thermal Enthalpies=            -465.656502
 Sum of electronic and thermal Free Energies=         -465.703067

                     E (Thermal)             CV                S
                      KCal/Mol        Cal/Mol-Kelvin    Cal/Mol-Kelvin
 Total                  159.134             42.804             98.005
 Electronic               0.000              0.000              0.000
 Translational            0.889              2.981             40.968
 Rotational               0.889              2.981             29.685
 Vibrational            157.356             36.843             27.352
 Vibration     1          0.597              1.972              4.355
 Vibration     2          0.610              1.930              3.048
 Vibration     3          0.646              1.815              1.986
 Vibration     4          0.658              1.776              1.789
 Vibration     5          0.666              1.754              1.693
 Vibration     6          0.674              1.728              1.594
 Vibration     7          0.678              1.715              1.550
 Vibration     8          0.688              1.687              1.458
 Vibration     9          0.695              1.665              1.392
 Vibration    10          0.734              1.555              1.123
 Vibration    11          0.748              1.519              1.050
 Vibration    12          0.783              1.425              0.890
 Vibration    13          0.835              1.298              0.715
 Vibration    14          0.864              1.231              0.637
 Vibration    15          0.884              1.185              0.588
 Vibration    16          0.973              1.003              0.427

 Normal termination of Gaussian 16 at Thu Feb 22 09:50:13 2024.
