 Gaussian 16, Revision A.03,
 Gaussian 16:  EM64M-G16RevA.03 25-Dec-2016

 ---------------------
 # freq b3lyp/6-31g(d)
 ---------------------

 ---------
 good luck
 ---------
 Symbolic Z-matrix:
 Charge =  0 Multiplicity = 1

                         Standard orientation:
 ---------------------------------------------------------------------
 Center     Atomic      Atomic             Coordinates (Angstroms)
 Number     Number       Type             X           Y           Z
 ---------------------------------------------------------------------
      1          8           0        0.256890    2.059214    0.501331
      2          6           0        0.699342    1.072887   -0.060890
      3          6           0       -0.101120   -0.209753   -0.336121
      4          6           0       -1.637296   -0.139062   -0.057218
      5          6           0       -2.298867   -1.460532   -0.507837
      6          6           0       -2.257400    1.000427   -0.896183
      7          6           0       -1.953480    0.091061    1.435139
      8          6           0        0.653491   -1.373731    0.372774
      9          6           0        2.116381   -1.484419   -0.083190
     10          6           0        2.882998   -0.178417    0.154733
     11          6           0        2.158624    1.013552   -0.504523
     12          1           0        0.012943   -0.393924   -1.418176
     13          1           0       -2.052736   -1.699669   -1.550722
     14          1           0       -3.389561   -1.373754   -0.437999
     15          1           0       -2.002925   -2.312454    0.113607
     16          1           0       -3.346559    1.013512   -0.767964
     17          1           0       -1.867847    1.975729   -0.598436
     18          1           0       -2.054584    0.856979   -1.965988
     19          1           0       -3.039564    0.130794    1.584419
     20          1           0       -1.524374    1.031007    1.788741
     21          1           0       -1.570805   -0.724312    2.060709
     22          1           0        0.137319   -2.318281    0.175276
     23          1           0        0.623698   -1.220370    1.459867
     24          1           0        2.607225   -2.311531    0.444998
     25          1           0        2.145120   -1.736310   -1.153538
     26          1           0        2.963595    0.006847    1.234751
     27          1           0        3.907829   -0.250608   -0.229069
     28          1           0        2.631478    1.967416   -0.253777
     29          1           0        2.188582    0.893152   -1.597447
 ---------------------------------------------------------------------

 SCF Done:  E(RB3LYP) =  -467.141480005     A.U. after   13 cycles

 The electronic state is 1-A.
 Alpha  occ. eigenvalues --  -19.13557 -10.26942 -10.19588 -10.19526 -10.19411
 Alpha  occ. eigenvalues --  -10.19141 -10.19044 -10.18964 -10.17030 -10.16121
 Alpha  occ. eigenvalues --  -10.16072  -1.03416  -0.83885  -0.80492  -0.74218
 Alpha  occ. eigenvalues --   -0.71971  -0.67715  -0.67398  -0.62523  -0.58994
 Alpha  occ. eigenvalues --   -0.55077  -0.51489  -0.47126  -0.46791  -0.44971
 Alpha  occ. eigenvalues --   -0.44073  -0.43118  -0.42511  -0.41920  -0.40235
 Alpha  occ. eigenvalues --   -0.39430  -0.37973  -0.37070  -0.36376  -0.35691
 Alpha  occ. eigenvalues --   -0.35048  -0.34626  -0.33253  -0.32726  -0.32065
 Alpha  occ. eigenvalues --   -0.30961  -0.30206  -0.23243
 Alpha virt. eigenvalues --   -0.01430   0.08133   0.09728   0.10498   0.12940
 Alpha virt. eigenvalues --    0.13294   0.13992   0.14685   0.15109   0.15491
 Alpha virt. eigenvalues --    0.16513   0.17243   0.17644   0.18320   0.18538

 Mulliken charges:
               1
     1  O   -0.451357
     2  C    0.445973
     3  C   -0.163695
     4  C    0.110230
     5  C   -0.451935
     6  C   -0.461716
     7  C   -0.463029
     8  C   -0.283423
     9  C   -0.266364
    10  C   -0.268704
    11  C   -0.337647
    12  H    0.130487
    13  H    0.133009
    14  H    0.142093
    15  H    0.140674
    16  H    0.134120
    17  H    0.176189
    18  H    0.125875
    19  H    0.133589
    20  H    0.176285
    21  H    0.131677
    22  H    0.148068
    23  H    0.146453
    24  H    0.139942
    25  H    0.132809
    26  H    0.146178
    27  H    0.143317
    28  H    0.161510
    29  H    0.149393
 Sum of Mulliken charges =  -0.00000

 Dipole moment (field-independent basis, Debye):
    X=              1.2489    Y=             -2.2529    Z=             -0.9928  Tot=              2.7606
 Quadrupole moment (field-independent basis, Debye-Ang):
   XX=            -66.7132   YY=            -75.1852   ZZ=            -69.3013
   XY=             -0.0072   XZ=             -0.4986   YZ=             -2.2009

  Exact polarizability: 117.666  -2.037 101.693  -1.500   1.080  90.632
 Approx polarizability: 146.173  -5.808 150.858  -4.213   7.533 140.801

                      1                      2                      3
                      A                      A                      A
 Frequencies --     65.7539                90.4703               135.1261
 Red. masses --      2.6497                 3.6033                 2.8060
 Frc consts  --      0.0067                 0.0174                 0.0302
 IR Inten    --      0.2206                 1.6077                 1.0925

                      4                      5                      6
                      A                      A                      A
 Frequencies --    193.8544               230.9338               238.0447
 Red. masses --      2.1143                 1.8626                 1.3682
 Frc consts  --      0.0468                 0.0585                 0.0457
 IR Inten    --      2.2350                 0.5850                 1.4930

                      7                      8                      9
                      A                      A                      A
 Frequencies --    264.4145               273.6221               296.2062
 Red. masses --      1.1374                 1.7352                 2.0188
 Frc consts  --      0.0469                 0.0765                 0.1044
 IR Inten    --      0.0196                 0.7376                 0.3117

                     10                     11                     12
                      A                      A                      A
 Frequencies --    304.6153               321.7420               360.3364
 Red. masses --      1.8728                 2.2926                 2.2977
 Frc consts  --      0.1024                 0.1398                 0.1758
 IR Inten    --      0.2631                 1.3225                 0.5905

                     13                     14                     15
                      A                      A                      A
 Frequencies --    405.1371               418.7841               445.9991
 Red. masses --      2.5179                 2.6489                 2.7468
 Frc consts  --      0.2435                 0.2737                 0.3219
 IR Inten    --      0.1007                 0.7360                 0.4402

                     16                     17                     18
                      A                      A                      A
 Frequencies --    463.2316               516.7631               591.7873
 Red. masses --      2.3702                 2.1643                 3.4644
 Frc consts  --      0.2997                 0.3405                 0.7148
 IR Inten    --      1.0719                 3.9411                 7.2498

                     19                     20                     21
                      A                      A                      A
 Frequencies --    685.5705               741.5185               783.7876
 Red. masses --      2.9775                 2.5086                 2.8228
 Frc consts  --      0.8245                 0.8127                 1.0217
 IR Inten    --      1.8931                 2.5496                 1.0284

                     22                     23                     24
                      A                      A                      A
 Frequencies --    850.1368               867.6656               881.4698
 Red. masses --      1.7272                 2.7285                 2.1664
 Frc consts  --      0.7355                 1.2103                 0.9918
 IR Inten    --     10.1269                 0.3618                 6.3389

                     25                     26                     27
                      A                      A                      A
 Frequencies --    914.8716               938.8657               945.4127
 Red. masses --      1.4644                 1.9621                 1.7242
 Frc consts  --      0.7221                 1.0190                 0.9080
 IR Inten    --      1.0660                 0.4255                 1.1421

                     28                     29                     30
                      A                      A                      A
 Frequencies --    954.4742               973.1391              1021.5131
 Red. masses --      2.2038                 1.2009                 1.8838
 Frc consts  --      1.1829                 0.6700                 1.1582
 IR Inten    --      1.9475                 0.4306                 1.7803

                     31                     32                     33
                      A                      A                      A
 Frequencies --   1023.6217              1055.7374              1070.1388
 Red. masses --      1.6786                 1.7045                 1.3595
 Frc consts  --      1.0363                 1.1193                 0.9173
 IR Inten    --      5.6958                 7.3659                 1.1844

                     34                     35                     36
                      A                      A                      A
 Frequencies --   1085.8921              1092.0564              1121.9722
 Red. masses --      1.9471                 1.7980                 1.5249
 Frc consts  --      1.3528                 1.2634                 1.1310
 IR Inten    --      2.9005                12.3833                 4.7649

                     37                     38                     39
                      A                      A                      A
 Frequencies --   1153.4859              1211.1579              1250.0196
 Red. masses --      1.9132                 1.5630                 2.3611
 Frc consts  --      1.4998                 1.3509                 2.1737
 IR Inten    --     33.3328                 6.2451                 0.5720

                     40                     41                     42
                      A                      A                      A
 Frequencies --   1253.9742              1277.1280              1280.6086
 Red. masses --      1.8168                 1.5678                 2.1537
 Frc consts  --      1.6832                 1.5066                 2.0810
 IR Inten    --      4.1727                 1.8121                17.0561

                     43                     44                     45
                      A                      A                      A
 Frequencies --   1298.0267              1336.6017              1356.9101
 Red. masses --      1.4013                 1.3764                 1.3145
 Frc consts  --      1.3911                 1.4487                 1.4260
 IR Inten    --      0.9276                 3.5062                 4.2297

                     46                     47                     48
                      A                      A                      A
 Frequencies --   1358.9974              1386.1451              1398.3125
 Red. masses --      1.3701                 1.4353                 1.6014
 Frc consts  --      1.4908                 1.6248                 1.8448
 IR Inten    --      7.3147                 6.4592                 4.9169

                     49                     50                     51
                      A                      A                      A
 Frequencies --   1401.7734              1423.2819              1427.3812
 Red. masses --      1.4560                 1.2344                 1.2360
 Frc consts  --      1.6856                 1.4733                 1.4837
 IR Inten    --      6.4303                 9.3605                 7.4236

                     52                     53                     54
                      A                      A                      A
 Frequencies --   1456.7356              1500.8739              1511.6488
 Red. masses --      1.2256                 1.0926                 1.0489
 Frc consts  --      1.5323                 1.4501                 1.4122
 IR Inten    --      9.5275                 5.5275                 0.7809

                     55                     56                     57
                      A                      A                      A
 Frequencies --   1517.6189              1518.6214              1521.9722
 Red. masses --      1.0729                 1.0818                 1.0641
 Frc consts  --      1.4559                 1.4699                 1.4522
 IR Inten    --      1.5482                 6.3794                 1.5312

                     58                     59                     60
                      A                      A                      A
 Frequencies --   1528.8528              1534.2603              1536.6645
 Red. masses --      1.0514                 1.0921                 1.0535
 Frc consts  --      1.4479                 1.5147                 1.4657
 IR Inten    --      1.5026                 0.9383                 7.3341

                     61                     62                     63
                      A                      A                      A
 Frequencies --   1544.5510              1558.4214              1801.3444
 Red. masses --      1.0557                 1.0557                10.8792
 Frc consts  --      1.4838                 1.5106                20.7990
 IR Inten    --      2.4115                13.1317               146.9114

                     64                     65                     66
                      A                      A                      A
 Frequencies --   2981.8416              3025.2306              3030.8819
 Red. masses --      1.0806                 1.0677                 1.0689
 Frc consts  --      5.6609                 5.7574                 5.7854
 IR Inten    --     12.7460                22.2536                 7.8710

                     67                     68                     69
                      A                      A                      A
 Frequencies --   3035.8327              3039.4275              3040.3775
 Red. masses --      1.0390                 1.0617                 1.0405
 Frc consts  --      5.6417                 5.7786                 5.6667
 IR Inten    --     15.6901                31.7694                34.7957

                     70                     71                     72
                      A                      A                      A
 Frequencies --   3044.7408              3050.8060              3076.4762
 Red. masses --      1.0579                 1.0474                 1.0942
 Frc consts  --      5.7782                 5.7439                 6.1017
 IR Inten    --     16.1147                34.6538                49.8480

                     73                     74                     75
                      A                      A                      A
 Frequencies --   3084.4573              3093.9101              3098.5186
 Red. masses --      1.1024                 1.1004                 1.1002
 Frc consts  --      6.1796                 6.2062                 6.2236
 IR Inten    --     47.4917                 8.6310                16.0879

                     76                     77                     78
                      A                      A                      A
 Frequencies --   3101.6250              3105.9324              3117.6858
 Red. masses --      1.1006                 1.0999                 1.0987
 Frc consts  --      6.2380                 6.2513                 6.2920
 IR Inten    --     58.8690                69.0681                41.0708

                     79                     80                     81
                      A                      A                      A
 Frequencies --   3120.0056              3155.9420              3159.9662
 Red. masses --      1.0965                 1.0984                 1.0968
 Frc consts  --      6.2887                 6.4456                 6.4525
 IR Inten    --     20.4999                 3.1331                15.3036

 - Thermochemistry -
 -------------------
 Temperature   298.150 Kelvin.  Pressure   1.00000 Atm.
 Atom     1 has atomic number  8 and mass  15.99491

 Molecular mass:   154.13577 amu.
 Principal axes and moments of inertia in atomic units:
                           1         2         3
     Eigenvalues --  1053.120542144.342942658.70359
           X            0.99999  -0.00459  -0.00079
           Y            0.00457   0.99983  -0.01774
           Z            0.00087   0.01773   0.99984
 This molecule is an asymmetric top.
 Rotational symmetry number  1.
 Warning -- assumption of classical behavior for rotation
           may cause significant error
 Rotational temperatures (Kelvin)      0.08225     0.04039     0.03258
 Rotational constants (GHZ):           1.71371     0.84163     0.67880
 Zero-point vibrational energy     695830.0 (Joules/Mol)
                                  166.30736 (Kcal/Mol)
 Warning -- explicit consideration of  18 degrees of freedom as
           vibrations may cause significant error
 Vibrational temperatures:     94.61   130.17   194.42   278.91   332.26
          (Kelvin)            342.49   380.43   393.68   426.17   438.27
                              462.91   518.44   582.90   602.54   641.69
                              666.49   743.51   851.45   986.38  1066.88
                             1127.70  1223.16  1248.38  1268.24  1316.30
                             1350.82  1360.24  1373.28  1400.13  1469.73
                             1472.76  1518.97  1539.69  1562.36  1571.23
                             1614.27  1659.61  1742.59  1798.50  1804.19
                             1837.50  1842.51  1867.57  1923.07  1952.29
                             1955.29  1994.35  2011.86  2016.84  2047.79
                             2053.68  2095.92  2159.42  2174.93  2183.52
                             2184.96  2189.78  2199.68  2207.46  2210.92
                             2222.26  2242.22  2591.73  4290.20  4352.63
                             4360.76  4367.89  4373.06  4374.43  4380.70
                             4389.43  4426.36  4437.85  4451.45  4458.08
                             4462.55  4468.74  4485.65  4488.99  4540.70
                             4546.49

 Zero-point correction=                           0.265028 (Hartree/Particle)
 Thermal correction to Energy=                    0.276794
 Thermal correction to Enthalpy=                  0.277738
 Thermal correction to Gibbs Free Energy=         0.228469
 Sum of electronic and zero-point Energies=           -466.876452
 Sum of electronic and thermal Energies=              -466.864686
 Sum of electronic and thermal Enthalpies=            -466.863742
 Sum of electronic and thermal Free Energies=         -466.913011

                     E (Thermal)             CV                S
                      KCal/Mol        Cal/Mol-Kelvin    Cal/Mol-Kelvin
 Total                  173.691             46.322            103.695
 Electronic               0.000              0.000              0.000
 Translational            0.889              2.981             41.008
 Rotational               0.889              2.981             30.175
 Vibrational            171.913             40.360             32.513
 Vibration     1          0.597              1.971              4.277
 Vibration     2          0.602              1.956              3.650
 Vibration     3          0.613              1.918              2.872
 Vibration     4          0.635              1.848              2.191
 Vibration     5          0.653              1.794              1.872
 Vibration     6          0.656              1.782              1.817
 Vibration     7          0.671              1.738              1.632
 Vibration     8          0.676              1.722              1.573
 Vibration     9          0.690              1.681              1.438
 Vibration    10          0.696              1.665              1.391
 Vibration    11          0.707              1.632              1.301
 Vibration    12          0.735              1.554              1.121
 Vibration    13          0.770              1.459              0.944
 Vibration    14          0.782              1.429              0.896
 Vibration    15          0.805              1.370              0.808
 Vibration    16          0.821              1.332              0.757
 Vibration    17          0.872              1.213              0.618
 Vibration    18          0.949              1.049              0.464

 Normal termination of Gaussian 16 at Thu Feb 22 10:46:22 2024.
