 Gaussian 16, Revision A.03,
 Gaussian 16:  EM64M-G16RevA.03 25-Dec-2016

 ---------------------
 # freq b3lyp/6-31g(d)
 ---------------------

 ---------
 good luck
 ---------
 Symbolic Z-matrix:
 Charge =  0 Multiplicity = 1

                         Standard orientation:
 ---------------------------------------------------------------------
 Center     Atomic      Atomic             Coordinates (Angstroms)
 Number     Number       Type             X           Y           Z
 ---------------------------------------------------------------------
      1          8           0        1.592705    1.610811   -0.512104
      2          6           0        0.637692    0.975302   -0.121099
      3          6           0        0.578734   -0.539716    0.121318
      4          6           0        1.933697   -1.200066    0.298694
      5          6           0       -0.458280   -0.596820    1.272878
      6          6           0       -0.285259   -1.080861   -1.067025
      7          6           0       -1.727046   -0.566602   -0.761931
      8          6           0       -1.540790    0.236982    0.547842
      9          6           0       -0.758079    1.525329    0.219420
     10          1           0        2.573781   -1.001335   -0.567500
     11          1           0        2.451247   -0.809572    1.182077
     12          1           0        1.832496   -2.285580    0.413114
     13          1           0       -0.778818   -1.620973    1.497603
     14          1           0       -0.097829   -0.131917    2.198932
     15          1           0       -0.241632   -2.176302   -1.063138
     16          1           0        0.097223   -0.745627   -2.036886
     17          1           0       -2.135520    0.051049   -1.569158
     18          1           0       -2.419414   -1.401810   -0.610274
     19          1           0       -2.465932    0.407464    1.104804
     20          1           0       -1.165831    2.119912   -0.605551
     21          1           0       -0.675421    2.186911    1.092224
 ---------------------------------------------------------------------

 SCF Done:  E(RB3LYP) =  -387.300407077     A.U. after   13 cycles

 The electronic state is 1-A.
 Alpha  occ. eigenvalues --  -19.13385 -10.26510 -10.19891 -10.19740 -10.19176
 Alpha  occ. eigenvalues --  -10.18929 -10.18922 -10.18853 -10.17495  -1.03273
 Alpha  occ. eigenvalues --   -0.87798  -0.76168  -0.73595  -0.69170  -0.66559
 Alpha  occ. eigenvalues --   -0.59210  -0.56250  -0.49937  -0.49039  -0.47163
 Alpha  occ. eigenvalues --   -0.46412  -0.42492  -0.41364  -0.40552  -0.39394
 Alpha  occ. eigenvalues --   -0.37910  -0.36763  -0.35388  -0.35055  -0.34408
 Alpha  occ. eigenvalues --   -0.32936  -0.31684  -0.30844  -0.23057
 Alpha virt. eigenvalues --   -0.00915   0.07574   0.10848   0.10927   0.13190
 Alpha virt. eigenvalues --    0.14890   0.15652   0.16374   0.16642   0.16831
 Alpha virt. eigenvalues --    0.17642   0.18442   0.19194   0.19677   0.21584

 Mulliken charges:
               1
     1  O   -0.460185
     2  C    0.446896
     3  C    0.021574
     4  C   -0.467407
     5  C   -0.288296
     6  C   -0.290059
     7  C   -0.272536
     8  C   -0.112335
     9  C   -0.349331
    10  H    0.163600
    11  H    0.149391
    12  H    0.137474
    13  H    0.139345
    14  H    0.140582
    15  H    0.147305
    16  H    0.153509
    17  H    0.140236
    18  H    0.141553
    19  H    0.124973
    20  H    0.164856
    21  H    0.168855
 Sum of Mulliken charges =  -0.00000

 Dipole moment (field-independent basis, Debye):
    X=             -2.3013    Y=             -1.6187    Z=              0.8159  Tot=              2.9295
 Quadrupole moment (field-independent basis, Debye-Ang):
   XX=            -58.1085   YY=            -56.5190   ZZ=            -53.6521
   XY=             -4.4300   XZ=              1.5476   YZ=              1.7640

  Exact polarizability:  83.688   0.144  80.127  -0.873   0.044  71.526
 Approx polarizability: 117.189   7.237 115.781  -4.519  -2.540 106.216

                      1                      2                      3
                      A                      A                      A
 Frequencies --    111.3560               187.8976               211.6557
 Red. masses --      3.6842                 1.0713                 1.8990
 Frc consts  --      0.0269                 0.0223                 0.0501
 IR Inten    --      3.5902                 0.2580                 0.6997

                      4                      5                      6
                      A                      A                      A
 Frequencies --    268.3296               302.8007               372.4127
 Red. masses --      2.8352                 2.5231                 1.9589
 Frc consts  --      0.1203                 0.1363                 0.1601
 IR Inten    --      3.4168                 0.2272                 0.4148

                      7                      8                      9
                      A                      A                      A
 Frequencies --    423.4695               486.9300               524.8580
 Red. masses --      2.0872                 3.2633                 4.0862
 Frc consts  --      0.2205                 0.4559                 0.6632
 IR Inten    --      0.6832                 4.4909                 3.4164

                     10                     11                     12
                      A                      A                      A
 Frequencies --    597.8086               608.8345               690.7498
 Red. masses --      2.7442                 3.5463                 3.5661
 Frc consts  --      0.5778                 0.7745                 1.0025
 IR Inten    --      1.4996                 0.2527                 2.2352

                     13                     14                     15
                      A                      A                      A
 Frequencies --    765.9742               829.5428               844.3260
 Red. masses --      3.6126                 1.4384                 2.8606
 Frc consts  --      1.2488                 0.5832                 1.2015
 IR Inten    --      4.7469                 0.5478                 2.5123

                     16                     17                     18
                      A                      A                      A
 Frequencies --    861.6437               898.7792               935.3565
 Red. masses --      2.2826                 2.1681                 1.8327
 Frc consts  --      0.9985                 1.0319                 0.9447
 IR Inten    --      1.4453                 0.5173                 0.6078

                     19                     20                     21
                      A                      A                      A
 Frequencies --    951.1261               959.5823               971.8535
 Red. masses --      2.1037                 2.1252                 2.1280
 Frc consts  --      1.1212                 1.1530                 1.1842
 IR Inten    --      6.3234                 1.5022                 4.0549

                     22                     23                     24
                      A                      A                      A
 Frequencies --   1020.9369              1051.5990              1074.0335
 Red. masses --      1.5778                 1.6072                 2.4413
 Frc consts  --      0.9689                 1.0472                 1.6592
 IR Inten    --      5.9252                 5.5066                32.3906

                     25                     26                     27
                      A                      A                      A
 Frequencies --   1086.8463              1144.7210              1160.3557
 Red. masses --      1.2939                 1.1283                 1.2782
 Frc consts  --      0.9005                 0.8711                 1.0140
 IR Inten    --      1.0725                 0.8586                 2.9688

                     28                     29                     30
                      A                      A                      A
 Frequencies --   1179.3048              1208.3396              1234.0988
 Red. masses --      2.5488                 1.7807                 1.6329
 Frc consts  --      2.0885                 1.5319                 1.4652
 IR Inten    --      4.1022                 7.1171                 0.7926

                     31                     32                     33
                      A                      A                      A
 Frequencies --   1268.5233              1283.1065              1298.5670
 Red. masses --      1.6344                 1.4230                 1.4906
 Frc consts  --      1.5496                 1.3804                 1.4810
 IR Inten    --      0.6338                 0.8666                 0.7678

                     34                     35                     36
                      A                      A                      A
 Frequencies --   1312.3394              1342.2096              1358.2544
 Red. masses --      1.8102                 1.5972                 1.5029
 Frc consts  --      1.8368                 1.6954                 1.6336
 IR Inten    --      1.6999                 4.4505                 2.8345

                     37                     38                     39
                      A                      A                      A
 Frequencies --   1374.4329              1441.1123              1480.3762
 Red. masses --      2.1484                 1.2726                 1.0900
 Frc consts  --      2.3912                 1.5572                 1.4074
 IR Inten    --      2.8823                 2.2880                 8.3220

                     40                     41                     42
                      A                      A                      A
 Frequencies --   1517.1384              1521.5131              1525.3434
 Red. masses --      1.0659                 1.0584                 1.0931
 Frc consts  --      1.4455                 1.4436                 1.4984
 IR Inten    --      1.0612                 3.3635                 4.7617

                     43                     44                     45
                      A                      A                      A
 Frequencies --   1526.3083              1547.8952              1843.2725
 Red. masses --      1.0564                 1.1032                12.5010
 Frc consts  --      1.4500                 1.5573                25.0250
 IR Inten    --      4.9672                 1.1885               210.3477

                     46                     47                     48
                      A                      A                      A
 Frequencies --   3049.1505              3052.1257              3055.6511
 Red. masses --      1.0381                 1.0618                 1.0603
 Frc consts  --      5.6865                 5.8278                 5.8329
 IR Inten    --     12.8742                20.9091                27.9637

                     49                     50                     51
                      A                      A                      A
 Frequencies --   3057.3565              3067.9621              3093.7731
 Red. masses --      1.0585                 1.0615                 1.1058
 Frc consts  --      5.8297                 5.8869                 6.2358
 IR Inten    --     42.5019                31.6877                 3.2331

                     52                     53                     54
                      A                      A                      A
 Frequencies --   3100.6156              3104.4795              3110.9680
 Red. masses --      1.1072                 1.1009                 1.0914
 Frc consts  --      6.2714                 6.2512                 6.2233
 IR Inten    --     19.6810                 9.2985                33.8912

                     55                     56                     57
                      A                      A                      A
 Frequencies --   3113.5699              3115.4890              3123.5466
 Red. masses --      1.1018                 1.1029                 1.1016
 Frc consts  --      6.2934                 6.3072                 6.3325
 IR Inten    --     34.3670                54.0412                19.7805

 - Thermochemistry -
 -------------------
 Temperature   298.150 Kelvin.  Pressure   1.00000 Atm.
 Atom     1 has atomic number  8 and mass  15.99491

 Molecular mass:   124.08882 amu.
 Principal axes and moments of inertia in atomic units:
                           1         2         3
     Eigenvalues --   782.52756 983.333321267.53646
           X            0.98790  -0.15382   0.02003
           Y            0.15335   0.98790   0.02321
           Z           -0.02336  -0.01985   0.99953
 This molecule is an asymmetric top.
 Rotational symmetry number  1.
 Warning -- assumption of classical behavior for rotation
           may cause significant error
 Rotational temperatures (Kelvin)      0.11068     0.08808     0.06833
 Rotational constants (GHZ):           2.30630     1.83533     1.42382
 Zero-point vibrational energy     488379.1 (Joules/Mol)
                                  116.72540 (Kcal/Mol)
 Warning -- explicit consideration of  11 degrees of freedom as
           vibrations may cause significant error
 Vibrational temperatures:    160.22   270.34   304.53   386.07   435.66
          (Kelvin)            535.82   609.28   700.58   755.15   860.11
                              875.98   993.83  1102.07  1193.53  1214.80
                             1239.71  1293.14  1345.77  1368.46  1380.62
                             1398.28  1468.90  1513.02  1545.29  1563.73
                             1647.00  1669.49  1696.76  1738.53  1775.59
                             1825.12  1846.10  1868.35  1888.16  1931.14
                             1954.23  1977.50  2073.44  2129.93  2182.82
                             2189.12  2194.63  2196.02  2227.08  2652.06
                             4387.05  4391.33  4396.40  4398.85  4414.11
                             4451.25  4461.09  4466.65  4475.99  4479.73
                             4482.49  4494.09

 Zero-point correction=                           0.186014 (Hartree/Particle)
 Thermal correction to Energy=                    0.193891
 Thermal correction to Enthalpy=                  0.194835
 Thermal correction to Gibbs Free Energy=         0.154052
 Sum of electronic and zero-point Energies=           -387.114393
 Sum of electronic and thermal Energies=              -387.106516
 Sum of electronic and thermal Enthalpies=            -387.105572
 Sum of electronic and thermal Free Energies=         -387.146355

                     E (Thermal)             CV                S
                      KCal/Mol        Cal/Mol-Kelvin    Cal/Mol-Kelvin
 Total                  121.668             31.832             85.835
 Electronic               0.000              0.000              0.000
 Translational            0.889              2.981             40.361
 Rotational               0.889              2.981             28.369
 Vibrational            119.891             25.871             17.105
 Vibration     1          0.607              1.940              3.245
 Vibration     2          0.633              1.856              2.248
 Vibration     3          0.643              1.823              2.029
 Vibration     4          0.673              1.731              1.607
 Vibration     5          0.694              1.668              1.401
 Vibration     6          0.744              1.529              1.070
 Vibration     7          0.786              1.419              0.880
 Vibration     8          0.843              1.279              0.692
 Vibration     9          0.880              1.195              0.599
 Vibration    10          0.956              1.036              0.453
 Vibration    11          0.968              1.013              0.435

 Normal termination of Gaussian 16 at Wed Feb 21 18:35:04 2024.
