 Gaussian 16, Revision A.03,
 Gaussian 16:  EM64M-G16RevA.03 25-Dec-2016

 ---------------------
 # freq b3lyp/6-31g(d)
 ---------------------

 ---------
 good luck
 ---------
 Symbolic Z-matrix:
 Charge =  0 Multiplicity = 1

                         Standard orientation:
 ---------------------------------------------------------------------
 Center     Atomic      Atomic             Coordinates (Angstroms)
 Number     Number       Type             X           Y           Z
 ---------------------------------------------------------------------
      1          8           0        5.429653    0.254494   -0.960999
      2          6           0        4.395378    0.035128   -0.358308
      3          6           0        3.851199   -1.370411   -0.153091
      4          6           0        2.340057   -1.476148   -0.451970
      5          6           0        1.471412   -0.410326    0.269145
      6          6           0        1.515362   -0.661140    1.794044
      7          6           0       -0.001859   -0.469970   -0.273192
      8          6           0       -0.695283   -1.840999   -0.077665
      9          6           0       -2.130285   -1.889991   -0.642816
     10          6           0       -2.998809   -0.756017   -0.078115
     11          6           0       -3.272877   -0.985061    1.425704
     12          6           0       -4.347442   -0.517631   -0.794221
     13          6           0       -4.690289    0.976308   -0.511403
     14          6           0       -3.352987    1.654412   -0.077812
     15          6           0       -2.282985    0.587626   -0.376167
     16          6           0       -0.885858    0.705147    0.248460
     17          6           0       -0.236278    2.065809   -0.057384
     18          6           0        1.212513    2.151700    0.435016
     19          6           0        2.052163    0.990191   -0.113153
     20          6           0        3.547367    1.146239    0.241273
     21          1           0        4.040700   -1.647430    0.894437
     22          1           0        4.428955   -2.059991   -0.776038
     23          1           0        2.189571   -1.375403   -1.536296
     24          1           0        2.007236   -2.485378   -0.185933
     25          1           0        0.862954    0.019290    2.348524
     26          1           0        1.198671   -1.682922    2.028713
     27          1           0        2.523181   -0.540305    2.203433
     28          1           0        0.080410   -0.317853   -1.363493
     29          1           0       -0.720746   -2.098748    0.987979
     30          1           0       -0.105409   -2.626206   -0.563687
     31          1           0       -2.090235   -1.795266   -1.737991
     32          1           0       -2.574091   -2.872566   -0.430527
     33          1           0       -2.360453   -1.018629    2.028418
     34          1           0       -3.791708   -1.941918    1.563112
     35          1           0       -3.913582   -0.204868    1.849901
     36          1           0       -4.222280   -0.679076   -1.872866
     37          1           0       -5.135615   -1.201185   -0.457412
     38          1           0       -5.111146    1.455567   -1.401442
     39          1           0       -5.447317    1.067342    0.274729
     40          1           0       -3.367860    1.903773    0.990657
     41          1           0       -3.171026    2.590219   -0.615993
     42          1           0       -2.130782    0.601499   -1.469760
     43          1           0       -0.984808    0.620456    1.340509
     44          1           0       -0.253549    2.231164   -1.145843
     45          1           0       -0.833100    2.872305    0.386477
     46          1           0        1.240327    2.150351    1.533754
     47          1           0        1.658855    3.104445    0.120401
     48          1           0        1.987477    1.048389   -1.212416
     49          1           0        3.679503    1.132503    1.333422
     50          1           0        3.935657    2.105287   -0.116846
 ---------------------------------------------------------------------

 SCF Done:  E(RB3LYP) =  -817.335780528     A.U. after   14 cycles

 The electronic state is 1-A.
 Alpha  occ. eigenvalues --  -19.12898 -10.26524 -10.20122 -10.19331 -10.18862
 Alpha  occ. eigenvalues --  -10.18780 -10.18772 -10.18677 -10.18536 -10.18362
 Alpha  occ. eigenvalues --  -10.18162 -10.17931 -10.17918 -10.17841 -10.17804
 Alpha  occ. eigenvalues --  -10.17799 -10.17716 -10.17622 -10.17441 -10.17183
 Alpha  occ. eigenvalues --   -1.02779  -0.86543  -0.84492  -0.79621  -0.78757
 Alpha  occ. eigenvalues --   -0.76098  -0.74572  -0.72484  -0.71097  -0.68475
 Alpha  occ. eigenvalues --   -0.67734  -0.66763  -0.63298  -0.61074  -0.58769
 Alpha  occ. eigenvalues --   -0.57336  -0.55415  -0.53893  -0.52386  -0.51563
 Alpha  occ. eigenvalues --   -0.47727  -0.47708  -0.46952  -0.46018  -0.45712
 Alpha  occ. eigenvalues --   -0.44022  -0.43817  -0.43409  -0.43363  -0.41921
 Alpha  occ. eigenvalues --   -0.40869  -0.40603  -0.40207  -0.39278  -0.38617
 Alpha  occ. eigenvalues --   -0.38528  -0.37744  -0.37270  -0.37139  -0.36495
 Alpha  occ. eigenvalues --   -0.35243  -0.34791  -0.34300  -0.34126  -0.33553
 Alpha  occ. eigenvalues --   -0.33048  -0.32535  -0.32358  -0.31327  -0.31203
 Alpha  occ. eigenvalues --   -0.30689  -0.30341  -0.30049  -0.27950  -0.27008
 Alpha  occ. eigenvalues --   -0.23108
 Alpha virt. eigenvalues --   -0.00854   0.07353   0.07580   0.08122   0.09570
 Alpha virt. eigenvalues --    0.10123   0.11063   0.11774   0.11901   0.12779
 Alpha virt. eigenvalues --    0.12940   0.13618   0.14114   0.14978   0.15448

 Mulliken charges:
               1
     1  O   -0.451244
     2  C    0.453472
     3  C   -0.355613
     4  C   -0.289175
     5  C    0.100998
     6  C   -0.484668
     7  C   -0.094037
     8  C   -0.291471
     9  C   -0.273133
    10  C    0.101851
    11  C   -0.471576
    12  C   -0.277287
    13  C   -0.281022
    14  C   -0.285747
    15  C   -0.088338
    16  C   -0.098071
    17  C   -0.272617
    18  C   -0.268658
    19  C   -0.104508
    20  C   -0.355949
    21  H    0.158179
    22  H    0.162552
    23  H    0.138024
    24  H    0.142241
    25  H    0.151458
    26  H    0.148573
    27  H    0.142486
    28  H    0.107953
    29  H    0.136149
    30  H    0.135152
    31  H    0.123158
    32  H    0.125023
    33  H    0.144863
    34  H    0.140754
    35  H    0.145297
    36  H    0.128217
    37  H    0.128784
    38  H    0.136617
    39  H    0.136848
    40  H    0.132100
    41  H    0.135144
    42  H    0.109099
    43  H    0.117118
    44  H    0.125361
    45  H    0.135991
    46  H    0.130324
    47  H    0.132933
    48  H    0.123301
    49  H    0.153854
    50  H    0.159241
 Sum of Mulliken charges =  -0.00000

 Dipole moment (field-independent basis, Debye):
    X=             -3.0402    Y=             -0.4860    Z=              1.4105  Tot=              3.3865
 Quadrupole moment (field-independent basis, Debye-Ang):
   XX=           -149.5555   YY=           -122.7244   ZZ=           -124.5306
   XY=             -3.0763   XZ=              8.1963   YZ=              0.2785

  Exact polarizability: 230.006   0.018 180.286  -3.232  -0.544 155.637
 Approx polarizability: 278.730   3.045 262.113 -10.872  -3.047 265.744

                      1                      2                      3
                      A                      A                      A
 Frequencies --     42.7745                61.6408                88.3975
 Red. masses --      5.1777                 3.7824                 3.3238
 Frc consts  --      0.0056                 0.0085                 0.0153
 IR Inten    --      1.4836                 1.4748                 1.0531

                      4                      5                      6
                      A                      A                      A
 Frequencies --    131.1015               133.5472               149.0792
 Red. masses --      1.7754                 2.4718                 2.9059
 Frc consts  --      0.0180                 0.0260                 0.0381
 IR Inten    --      0.0135                 0.5804                 0.0246

                      7                      8                      9
                      A                      A                      A
 Frequencies --    161.4526               201.4903               225.2657
 Red. masses --      1.8300                 1.8713                 1.6875
 Frc consts  --      0.0281                 0.0448                 0.0505
 IR Inten    --      0.4084                 0.1636                 0.1337

                     10                     11                     12
                      A                      A                      A
 Frequencies --    230.3839               247.3655               255.4330
 Red. masses --      2.2172                 2.4976                 1.8022
 Frc consts  --      0.0693                 0.0900                 0.0693
 IR Inten    --      0.0395                 0.2010                 0.0303

                     13                     14                     15
                      A                      A                      A
 Frequencies --    260.9726               285.0492               291.2472
 Red. masses --      2.5388                 2.1836                 2.3711
 Frc consts  --      0.1019                 0.1045                 0.1185
 IR Inten    --      0.2478                 0.1080                 0.1686

                     16                     17                     18
                      A                      A                      A
 Frequencies --    315.7094               332.8351               366.5477
 Red. masses --      2.7788                 2.5277                 2.1669
 Frc consts  --      0.1632                 0.1650                 0.1715
 IR Inten    --      0.7436                 0.3357                 0.0433

                     19                     20                     21
                      A                      A                      A
 Frequencies --    385.6283               402.0388               421.7106
 Red. masses --      2.8545                 2.9453                 2.5139
 Frc consts  --      0.2501                 0.2805                 0.2634
 IR Inten    --      0.0704                 2.3601                 0.3120

                     22                     23                     24
                      A                      A                      A
 Frequencies --    430.6761               444.5457               448.1795
 Red. masses --      2.9116                 2.9781                 2.4607
 Frc consts  --      0.3182                 0.3468                 0.2912
 IR Inten    --      0.9068                 1.1386                 1.9742

                     25                     26                     27
                      A                      A                      A
 Frequencies --    487.9367               507.6175               520.3204
 Red. masses --      3.1620                 2.2036                 2.9677
 Frc consts  --      0.4436                 0.3345                 0.4734
 IR Inten    --      2.7278                 0.2730                 2.2119

                     28                     29                     30
                      A                      A                      A
 Frequencies --    534.7919               550.6277               575.5440
 Red. masses --      2.4983                 2.8206                 2.4093
 Frc consts  --      0.4210                 0.5039                 0.4702
 IR Inten    --      2.2494                 0.8846                 1.0140

                     31                     32                     33
                      A                      A                      A
 Frequencies --    624.3956               656.9213               686.7688
 Red. masses --      2.6947                 3.5134                 3.3305
 Frc consts  --      0.6190                 0.8933                 0.9255
 IR Inten    --      0.3716                 0.6173                 2.1076

                     34                     35                     36
                      A                      A                      A
 Frequencies --    734.0590               742.6630               773.3947
 Red. masses --      2.1263                 2.0532                 2.0220
 Frc consts  --      0.6750                 0.6672                 0.7126
 IR Inten    --      1.8482                 0.7636                 3.9276

                     37                     38                     39
                      A                      A                      A
 Frequencies --    806.5521               815.5120               821.7013
 Red. masses --      1.7306                 2.2671                 2.6856
 Frc consts  --      0.6633                 0.8884                 1.0684
 IR Inten    --      0.0923                 0.3139                 2.0410

                     40                     41                     42
                      A                      A                      A
 Frequencies --    848.9983               865.5128               890.4200
 Red. masses --      1.9067                 1.9299                 1.6870
 Frc consts  --      0.8098                 0.8518                 0.7880
 IR Inten    --      0.6211                 0.3117                 2.3969

                     43                     44                     45
                      A                      A                      A
 Frequencies --    904.3290               918.2192               925.7431
 Red. masses --      2.7187                 1.8105                 2.0206
 Frc consts  --      1.3100                 0.8994                 1.0203
 IR Inten    --      0.8045                 0.3715                 0.8295

                     46                     47                     48
                      A                      A                      A
 Frequencies --    941.3229               955.2573               960.4624
 Red. masses --      1.8407                 1.8670                 1.7850
 Frc consts  --      0.9610                 1.0037                 0.9702
 IR Inten    --      0.7912                 0.5336                 3.8491

                     49                     50                     51
                      A                      A                      A
 Frequencies --    970.4946               981.8292               998.0290
 Red. masses --      1.8134                 1.9668                 1.9392
 Frc consts  --      1.0063                 1.1171                 1.1380
 IR Inten    --      1.3871                 3.8105                 0.5550

                     52                     53                     54
                      A                      A                      A
 Frequencies --   1010.9580              1013.7080              1015.9032
 Red. masses --      2.7405                 1.9085                 1.8994
 Frc consts  --      1.6503                 1.1555                 1.1550
 IR Inten    --      1.6064                 0.3408                 2.9579

                     55                     56                     57
                      A                      A                      A
 Frequencies --   1030.1267              1043.0034              1054.9939
 Red. masses --      1.9722                 2.1422                 1.9182
 Frc consts  --      1.2331                 1.3731                 1.2579
 IR Inten    --      0.5440                 4.3962                 0.7998

                     58                     59                     60
                      A                      A                      A
 Frequencies --   1065.0863              1084.0654              1092.0136
 Red. masses --      1.8395                 2.4472                 1.9940
 Frc consts  --      1.2295                 1.6945                 1.4010
 IR Inten    --      0.6498                 0.5083                 2.1041

                     61                     62                     63
                      A                      A                      A
 Frequencies --   1105.6240              1128.5869              1138.0224
 Red. masses --      2.3363                 1.5894                 2.2635
 Frc consts  --      1.6827                 1.1927                 1.7272
 IR Inten    --      1.9213                 0.4497                 1.4214

                     64                     65                     66
                      A                      A                      A
 Frequencies --   1139.4547              1152.8443              1157.2681
 Red. masses --      1.6743                 1.9239                 1.8229
 Frc consts  --      1.2808                 1.5065                 1.4384
 IR Inten    --      0.3734                15.6277                 1.1910

                     67                     68                     69
                      A                      A                      A
 Frequencies --   1175.3727              1179.6097              1203.0561
 Red. masses --      1.9180                 1.7973                 1.8402
 Frc consts  --      1.5612                 1.4735                 1.5693
 IR Inten    --      7.3312                 2.6710                13.7821

                     70                     71                     72
                      A                      A                      A
 Frequencies --   1211.7185              1221.4226              1232.8546
 Red. masses --      1.4667                 1.5596                 1.9083
 Frc consts  --      1.2688                 1.3708                 1.7089
 IR Inten    --      8.5324                 1.8370                 2.9231

                     73                     74                     75
                      A                      A                      A
 Frequencies --   1248.5781              1255.9639              1264.4103
 Red. masses --      1.6252                 1.7768                 1.4551
 Frc consts  --      1.4927                 1.6514                 1.3706
 IR Inten    --      7.7790                10.9543                 1.4120

                     76                     77                     78
                      A                      A                      A
 Frequencies --   1272.7970              1280.1255              1289.5120
 Red. masses --      1.4380                 1.3657                 1.4583
 Frc consts  --      1.3726                 1.3186                 1.4287
 IR Inten    --      3.7037                 4.3675                 3.7768

                     79                     80                     81
                      A                      A                      A
 Frequencies --   1295.0187              1311.4064              1312.3064
 Red. masses --      1.3869                 1.4552                 1.3731
 Frc consts  --      1.3704                 1.4745                 1.3932
 IR Inten    --      0.6224                 2.1656                 0.2114

                     82                     83                     84
                      A                      A                      A
 Frequencies --   1326.1256              1342.9640              1343.8104
 Red. masses --      1.5787                 1.4033                 1.3470
 Frc consts  --      1.6358                 1.4912                 1.4331
 IR Inten    --      0.7943                 0.4113                 1.9335

                     85                     86                     87
                      A                      A                      A
 Frequencies --   1351.3817              1355.0067              1361.0658
 Red. masses --      1.4282                 1.4071                 1.3747
 Frc consts  --      1.5368                 1.5222                 1.5005
 IR Inten    --      0.1413                 1.7156                 2.2320

                     88                     89                     90
                      A                      A                      A
 Frequencies --   1375.5241              1378.9674              1383.4047
 Red. masses --      1.3540                 1.4408                 1.5314
 Frc consts  --      1.5094                 1.6142                 1.7268
 IR Inten    --      2.7877                 1.2038                 3.2502

                     91                     92                     93
                      A                      A                      A
 Frequencies --   1386.4529              1392.0023              1399.9839
 Red. masses --      1.3576                 1.3105                 1.3864
 Frc consts  --      1.5376                 1.4962                 1.6009
 IR Inten    --      2.5293                 0.1346                 0.7627

                     94                     95                     96
                      A                      A                      A
 Frequencies --   1401.1112              1411.2322              1415.9240
 Red. masses --      1.4377                 1.4773                 1.3924
 Frc consts  --      1.6629                 1.7334                 1.6448
 IR Inten    --      2.0802                 1.1496                 0.8114

                     97                     98                     99
                      A                      A                      A
 Frequencies --   1427.6394              1443.3687              1448.0786
 Red. masses --      1.4856                 1.2402                 1.2580
 Frc consts  --      1.7840                 1.5223                 1.5542
 IR Inten    --      1.5346                 6.7269                13.0774

                    100                    101                    102
                      A                      A                      A
 Frequencies --   1490.8751              1500.1123              1511.1265
 Red. masses --      1.0898                 1.0816                 1.0751
 Frc consts  --      1.4271                 1.4341                 1.4465
 IR Inten    --      8.1466                 5.0692                 0.3863

                    103                    104                    105
                      A                      A                      A
 Frequencies --   1516.8627              1517.9476              1523.3652
 Red. masses --      1.0749                 1.0838                 1.0824
 Frc consts  --      1.4572                 1.4714                 1.4800
 IR Inten    --      0.8878                 7.5609                 3.4407

                    106                    107                    108
                      A                      A                      A
 Frequencies --   1524.2129              1525.9493              1528.5788
 Red. masses --      1.0800                 1.0897                 1.0883
 Frc consts  --      1.4784                 1.4950                 1.4983
 IR Inten    --      0.2928                 8.3605                 0.3416

                    109                    110                    111
                      A                      A                      A
 Frequencies --   1538.0956              1541.0862              1541.4884
 Red. masses --      1.0732                 1.0525                 1.0591
 Frc consts  --      1.4959                 1.4727                 1.4827
 IR Inten    --      0.9766                 1.7203                 1.2497

                    112                    113                    114
                      A                      A                      A
 Frequencies --   1545.6656              1548.5726              1815.8669
 Red. masses --      1.0650                 1.0938                11.0397
 Frc consts  --      1.4991                 1.5455                21.4474
 IR Inten    --      5.0544                 1.3077               236.3569

                    115                    116                    117
                      A                      A                      A
 Frequencies --   2961.7726              2970.1291              2984.3443
 Red. masses --      1.0819                 1.0809                 1.0818
 Frc consts  --      5.5917                 5.6182                 5.6765
 IR Inten    --      4.0492                13.3170                17.7364

                    118                    119                    120
                      A                      A                      A
 Frequencies --   3010.7958              3018.6459              3026.2724
 Red. masses --      1.0706                 1.0614                 1.0786
 Frc consts  --      5.7182                 5.6985                 5.8199
 IR Inten    --     10.9353                29.7976                21.8959

                    121                    122                    123
                      A                      A                      A
 Frequencies --   3028.1898              3029.9638              3032.8790
 Red. masses --      1.0679                 1.0656                 1.0636
 Frc consts  --      5.7694                 5.7642                 5.7645
 IR Inten    --      3.4284                17.1448                14.9236

                    124                    125                    126
                      A                      A                      A
 Frequencies --   3037.0046              3041.7134              3047.7255
 Red. masses --      1.0645                 1.0622                 1.0666
 Frc consts  --      5.7848                 5.7900                 5.8374
 IR Inten    --     58.9817                41.6475                24.4024

                    127                    128                    129
                      A                      A                      A
 Frequencies --   3048.9165              3052.4623              3061.9614
 Red. masses --      1.0700                 1.0504                 1.0758
 Frc consts  --      5.8606                 5.7662                 5.9428
 IR Inten    --     11.2906                 8.1280                42.4228

                    130                    131                    132
                      A                      A                      A
 Frequencies --   3065.2031              3066.8458              3067.9289
 Red. masses --      1.0928                 1.0527                 1.0653
 Frc consts  --      6.0492                 5.8336                 5.9076
 IR Inten    --     12.2224                48.4444                33.5969

                    133                    134                    135
                      A                      A                      A
 Frequencies --   3074.5386              3081.9732              3086.0416
 Red. masses --      1.0973                 1.0993                 1.0970
 Frc consts  --      6.1111                 6.1519                 6.1552
 IR Inten    --     46.6965                27.1911                77.1217

                    136                    137                    138
                      A                      A                      A
 Frequencies --   3093.7765              3096.5633              3104.9205
 Red. masses --      1.0993                 1.0980                 1.0955
 Frc consts  --      6.1994                 6.2033                 6.2226
 IR Inten    --     15.1998                36.4892                25.6293

                    139                    140                    141
                      A                      A                      A
 Frequencies --   3109.8768              3112.8504              3113.5623
 Red. masses --      1.1022                 1.0950                 1.1002
 Frc consts  --      6.2804                 6.2513                 6.2837
 IR Inten    --     62.5271                19.8541                54.3341

                    142                    143                    144
                      A                      A                      A
 Frequencies --   3123.0651              3130.1241              3134.4040
 Red. masses --      1.1000                 1.1001                 1.1002
 Frc consts  --      6.3212                 6.3504                 6.3685
 IR Inten    --     37.6338                34.3013                27.5750

 - Thermochemistry -
 -------------------
 Temperature   298.150 Kelvin.  Pressure   1.00000 Atm.
 Atom     1 has atomic number  8 and mass  15.99491

 Molecular mass:   274.22967 amu.
 Principal axes and moments of inertia in atomic units:
                           1         2         3
     Eigenvalues --  2175.178009425.56418**********
           X            0.99998  -0.00238   0.00540
           Y            0.00239   0.99999  -0.00227
           Z           -0.00539   0.00228   0.99998
 This molecule is an asymmetric top.
 Rotational symmetry number  1.
 Warning -- assumption of classical behavior for rotation
           may cause significant error
 Rotational temperatures (Kelvin)      0.03982     0.00919     0.00827
 Rotational constants (GHZ):           0.82970     0.19147     0.17238
 Zero-point vibrational energy    1209583.7 (Joules/Mol)
                                  289.09745 (Kcal/Mol)
 Warning -- explicit consideration of  30 degrees of freedom as
           vibrations may cause significant error
 Vibrational temperatures:     61.54    88.69   127.18   188.63   192.14
          (Kelvin)            214.49   232.29   289.90   324.11   331.47
                              355.90   367.51   375.48   410.12   419.04
                              454.24   478.88   527.38   554.83   578.44
                              606.75   619.65   639.60   644.83   702.03
                              730.35   748.62   769.45   792.23   828.08
                              898.37   945.16   988.11  1056.15  1068.53
                             1112.74  1160.45  1173.34  1182.24  1221.52
                             1245.28  1281.12  1301.13  1321.11  1331.94
                             1354.35  1374.40  1381.89  1396.33  1412.63
                             1435.94  1454.54  1458.50  1461.66  1482.12
                             1500.65  1517.90  1532.42  1559.73  1571.16
                             1590.75  1623.78  1637.36  1639.42  1658.69
                             1665.05  1691.10  1697.20  1730.93  1743.39
                             1757.35  1773.80  1796.43  1807.05  1819.20
                             1831.27  1841.82  1855.32  1863.24  1886.82
                             1888.12  1908.00  1932.23  1933.44  1944.34
                             1949.55  1958.27  1979.07  1984.03  1990.41
                             1994.80  2002.78  2014.26  2015.89  2030.45
                             2037.20  2054.05  2076.69  2083.46  2145.04
                             2158.33  2174.17  2182.43  2183.99  2191.78
                             2193.00  2195.50  2199.28  2212.98  2217.28
                             2217.86  2223.87  2228.05  2612.63  4261.33
                             4273.35  4293.81  4331.86  4343.16  4354.13
                             4356.89  4359.44  4363.64  4369.57  4376.35
                             4385.00  4386.71  4391.81  4405.48  4410.14
                             4412.51  4414.07  4423.58  4434.27  4440.13
                             4451.25  4455.26  4467.29  4474.42  4478.70
                             4479.72  4493.39  4503.55  4509.71

 Zero-point correction=                           0.460706 (Hartree/Particle)
 Thermal correction to Energy=                    0.478876
 Thermal correction to Enthalpy=                  0.479820
 Thermal correction to Gibbs Free Energy=         0.416516
 Sum of electronic and zero-point Energies=           -816.875074
 Sum of electronic and thermal Energies=              -816.856905
 Sum of electronic and thermal Enthalpies=            -816.855960
 Sum of electronic and thermal Free Energies=         -816.919265

                     E (Thermal)             CV                S
                      KCal/Mol        Cal/Mol-Kelvin    Cal/Mol-Kelvin
 Total                  300.499             76.549            133.236
 Electronic               0.000              0.000              0.000
 Translational            0.889              2.981             42.725
 Rotational               0.889              2.981             33.728
 Vibrational            298.722             70.588             56.782
 Vibration     1          0.595              1.980              5.126
 Vibration     2          0.597              1.973              4.404
 Vibration     3          0.601              1.957              3.695
 Vibration     4          0.612              1.922              2.930
 Vibration     5          0.613              1.920              2.894
 Vibration     6          0.618              1.904              2.684
 Vibration     7          0.622              1.890              2.533
 Vibration     8          0.638              1.838              2.119
 Vibration     9          0.650              1.803              1.916
 Vibration    10          0.652              1.795              1.876
 Vibration    11          0.661              1.767              1.749
 Vibration    12          0.666              1.754              1.693
 Vibration    13          0.669              1.744              1.655
 Vibration    14          0.683              1.701              1.503
 Vibration    15          0.687              1.690              1.467
 Vibration    16          0.703              1.644              1.332
 Vibration    17          0.715              1.610              1.246
 Vibration    18          0.739              1.541              1.094
 Vibration    19          0.754              1.501              1.017
 Vibration    20          0.768              1.466              0.955
 Vibration    21          0.784              1.423              0.886
 Vibration    22          0.792              1.403              0.856
 Vibration    23          0.804              1.373              0.812
 Vibration    24          0.807              1.365              0.801
 Vibration    25          0.844              1.277              0.689
 Vibration    26          0.863              1.233              0.639
 Vibration    27          0.875              1.205              0.609
 Vibration    28          0.890              1.173              0.577
 Vibration    29          0.906              1.138              0.543
 Vibration    30          0.932              1.084              0.494

 Normal termination of Gaussian 16 at Fri Feb 23 20:48:39 2024.
