 Gaussian 16, Revision A.03,
 Gaussian 16:  EM64M-G16RevA.03 25-Dec-2016

 ---------------------
 # freq b3lyp/6-31g(d)
 ---------------------

 ---------
 good luck
 ---------
 Symbolic Z-matrix:
 Charge =  0 Multiplicity = 1

                         Standard orientation:
 ---------------------------------------------------------------------
 Center     Atomic      Atomic             Coordinates (Angstroms)
 Number     Number       Type             X           Y           Z
 ---------------------------------------------------------------------
      1          8           0        2.744362   -1.332696    0.000000
      2          6           0        1.687598   -0.731958    0.000000
      3          6           0        0.950740   -0.298997    1.261538
      4          6           0       -0.440027   -0.972735    1.271331
      5          6           0       -1.269465   -0.727261    0.000000
      6          9           0       -2.281572   -1.719044    0.000000
      7          6           0       -2.045914    0.593540   -0.000000
      8          6           0       -1.246254    1.924851   -0.000000
      9          6           0       -0.440026   -0.972735   -1.271331
     10          6           0        0.950740   -0.298997   -1.261538
     11          6           0        0.903534    1.249122   -1.275057
     12          6           0        0.296189    1.879889   -0.000000
     13          6           0        0.903534    1.249122    1.275057
     14          1           0        1.522593   -0.648683    2.127336
     15          1           0       -0.305693   -2.057819    1.358387
     16          1           0       -1.011227   -0.652159    2.151988
     17          1           0       -2.706219    0.558499    0.874020
     18          1           0       -2.706217    0.558499   -0.874022
     19          1           0       -1.551319    2.515205    0.872833
     20          1           0       -1.551320    2.515205   -0.872832
     21          1           0       -1.011226   -0.652161   -2.151988
     22          1           0       -0.305693   -2.057820   -1.358387
     23          1           0        1.522594   -0.648682   -2.127336
     24          1           0        1.934155    1.610584   -1.390036
     25          1           0        0.353881    1.591764   -2.162298
     26          1           0        0.603020    2.935140   -0.000000
     27          1           0        0.353880    1.591765    2.162298
     28          1           0        1.934155    1.610584    1.390036
 ---------------------------------------------------------------------

 SCF Done:  E(RB3LYP) =  -603.275978948     A.U. after   14 cycles

 The electronic state is 1-A.
 Alpha  occ. eigenvalues --  -24.66357 -19.13752 -10.26855 -10.26771 -10.20224
 Alpha  occ. eigenvalues --  -10.19992 -10.19990 -10.19684 -10.19683 -10.19454
 Alpha  occ. eigenvalues --  -10.19453 -10.19364 -10.18935  -1.16844  -1.03575
 Alpha  occ. eigenvalues --   -0.86681  -0.79379  -0.78477  -0.78313  -0.69143
 Alpha  occ. eigenvalues --   -0.68503  -0.65887  -0.61110  -0.59123  -0.54169
 Alpha  occ. eigenvalues --   -0.51278  -0.50454  -0.47063  -0.46214  -0.45916
 Alpha  occ. eigenvalues --   -0.45720  -0.44510  -0.44164  -0.43081  -0.41430
 Alpha  occ. eigenvalues --   -0.39796  -0.39109  -0.38973  -0.38038  -0.37696
 Alpha  occ. eigenvalues --   -0.35853  -0.34843  -0.34188  -0.32184  -0.32140
 Alpha  occ. eigenvalues --   -0.31143  -0.30779  -0.30631  -0.23385
 Alpha virt. eigenvalues --   -0.01508   0.04882   0.09546   0.10097   0.10628
 Alpha virt. eigenvalues --    0.11535   0.12047   0.13423   0.15191   0.16273
 Alpha virt. eigenvalues --    0.16305   0.16959   0.17376   0.17384   0.18662

 Mulliken charges:
               1
     1  O   -0.452943
     2  C    0.447213
     3  C   -0.168481
     4  C   -0.323940
     5  C    0.402297
     6  F   -0.355729
     7  C   -0.306571
     8  C   -0.278778
     9  C   -0.323940
    10  C   -0.168481
    11  C   -0.288225
    12  C   -0.092804
    13  C   -0.288225
    14  H    0.150264
    15  H    0.162175
    16  H    0.144888
    17  H    0.147825
    18  H    0.147824
    19  H    0.139677
    20  H    0.139677
    21  H    0.144888
    22  H    0.162175
    23  H    0.150264
    24  H    0.148814
    25  H    0.139419
    26  H    0.132484
    27  H    0.139419
    28  H    0.148814
 Sum of Mulliken charges =  -0.00000

 Dipole moment (field-independent basis, Debye):
    X=             -1.3123    Y=              2.9223    Z=             -0.0000  Tot=              3.2034
 Quadrupole moment (field-independent basis, Debye-Ang):
   XX=            -89.4719   YY=            -79.2511   ZZ=            -73.1952
   XY=              1.8557   XZ=             -0.0000   YZ=             -0.0000

  Exact polarizability: 110.284  -4.557 104.477   0.000   0.000 101.009
 Approx polarizability: 162.744  -8.589 151.458   0.000   0.000 148.862

                      1                      2                      3
                      A                      A                      A
 Frequencies --     46.1484                93.4325               226.6039
 Red. masses --      1.8737                 9.4339                 3.1591
 Frc consts  --      0.0024                 0.0485                 0.0956
 IR Inten    --      0.0046                 3.7593                 0.0028

                      4                      5                      6
                      A                      A                      A
 Frequencies --    245.4816               297.0265               308.8731
 Red. masses --      2.9679                 2.6095                 5.6941
 Frc consts  --      0.1054                 0.1356                 0.3201
 IR Inten    --      0.9351                 3.2154                 0.8500

                      7                      8                      9
                      A                      A                      A
 Frequencies --    355.7981               361.7513               365.0357
 Red. masses --      3.0053                 2.4196                 3.8893
 Frc consts  --      0.2242                 0.1866                 0.3053
 IR Inten    --      1.0212                 1.1656                 1.1211

                     10                     11                     12
                      A                      A                      A
 Frequencies --    406.4805               437.3559               459.2235
 Red. masses --      2.5105                 2.5146                 4.2720
 Frc consts  --      0.2444                 0.2834                 0.5308
 IR Inten    --      5.5890                 3.4125                 3.4367

                     13                     14                     15
                      A                      A                      A
 Frequencies --    479.3421               496.2676               620.4800
 Red. masses --      3.8681                 3.9486                 4.0088
 Frc consts  --      0.5236                 0.5730                 0.9093
 IR Inten    --      4.2589                 0.4003                 0.9076

                     16                     17                     18
                      A                      A                      A
 Frequencies --    646.1880               691.8525               730.8819
 Red. masses --      4.5355                 4.6303                 3.2677
 Frc consts  --      1.1158                 1.3058                 1.0285
 IR Inten    --      4.3059                 1.1114                 0.7877

                     19                     20                     21
                      A                      A                      A
 Frequencies --    768.4778               809.3086               827.3738
 Red. masses --      3.2561                 1.4458                 4.5873
 Frc consts  --      1.1329                 0.5579                 1.8502
 IR Inten    --      0.5501                 0.5671                16.3499

                     22                     23                     24
                      A                      A                      A
 Frequencies --    834.8956               888.1176               890.8117
 Red. masses --      2.1084                 1.5156                 2.6276
 Frc consts  --      0.8659                 0.7043                 1.2285
 IR Inten    --      1.1603                 0.3463                 9.3995

                     25                     26                     27
                      A                      A                      A
 Frequencies --    937.4198               940.4419               956.6588
 Red. masses --      3.6208                 2.1316                 2.2597
 Frc consts  --      1.8747                 1.1108                 1.2185
 IR Inten    --     10.3137                 2.4421                 1.1942

                     28                     29                     30
                      A                      A                      A
 Frequencies --    973.8027               994.4803              1026.8438
 Red. masses --      2.5160                 1.7586                 2.0012
 Frc consts  --      1.4057                 1.0247                 1.2432
 IR Inten    --      4.3566                18.2251                 0.0103

                     31                     32                     33
                      A                      A                      A
 Frequencies --   1058.8893              1060.9831              1074.7173
 Red. masses --      2.7300                 3.1370                 2.2232
 Frc consts  --      1.8035                 2.0806                 1.5129
 IR Inten    --     28.0748                18.9284                19.6536

                     34                     35                     36
                      A                      A                      A
 Frequencies --   1090.4338              1119.1276              1120.5011
 Red. masses --      2.0065                 2.2064                 1.3506
 Frc consts  --      1.4057                 1.6282                 0.9991
 IR Inten    --     20.0417                 5.2821                 5.7997

                     37                     38                     39
                      A                      A                      A
 Frequencies --   1174.8049              1176.6815              1208.2339
 Red. masses --      1.5160                 1.6818                 1.2226
 Frc consts  --      1.2328                 1.3720                 1.0516
 IR Inten    --      3.3206                 0.0124                 0.8193

                     40                     41                     42
                      A                      A                      A
 Frequencies --   1229.1952              1259.5238              1262.8249
 Red. masses --      1.4490                 1.1249                 1.5198
 Frc consts  --      1.2899                 1.0514                 1.4280
 IR Inten    --      3.1583                 3.2077                 9.8626

                     43                     44                     45
                      A                      A                      A
 Frequencies --   1296.1501              1298.4986              1314.9320
 Red. masses --      2.0526                 1.2902                 1.5338
 Frc consts  --      2.0317                 1.2817                 1.5625
 IR Inten    --      4.4017                 0.5461                 1.5359

                     46                     47                     48
                      A                      A                      A
 Frequencies --   1328.6918              1335.3871              1350.0296
 Red. masses --      1.3547                 1.5666                 1.4795
 Frc consts  --      1.4091                 1.6459                 1.5888
 IR Inten    --      0.3769                 3.5514                12.4709

                     49                     50                     51
                      A                      A                      A
 Frequencies --   1377.0443              1377.9199              1392.6359
 Red. masses --      1.7417                 1.5144                 1.6174
 Frc consts  --      1.9459                 1.6941                 1.8482
 IR Inten    --      0.0111                 2.5694                 3.6060

                     52                     53                     54
                      A                      A                      A
 Frequencies --   1393.9323              1402.8252              1406.4794
 Red. masses --      1.4325                 1.5032                 1.4091
 Frc consts  --      1.6399                 1.7430                 1.6423
 IR Inten    --      4.9119                 0.7287                 5.2889

                     55                     56                     57
                      A                      A                      A
 Frequencies --   1418.8795              1424.9516              1508.1698
 Red. masses --      1.4256                 1.4147                 1.0840
 Frc consts  --      1.6909                 1.6924                 1.4528
 IR Inten    --      0.3886                 2.8608                 0.0073

                     58                     59                     60
                      A                      A                      A
 Frequencies --   1511.6104              1519.2293              1524.6024
 Red. masses --      1.0763                 1.0870                 1.0887
 Frc consts  --      1.4490                 1.4781                 1.4910
 IR Inten    --      0.8394                14.9083                 5.4746

                     61                     62                     63
                      A                      A                      A
 Frequencies --   1528.2830              1549.3236              1825.2939
 Red. masses --      1.0890                 1.0905                11.2250
 Frc consts  --      1.4986                 1.5423                22.0344
 IR Inten    --      6.2027                 2.7036               206.5820

                     64                     65                     66
                      A                      A                      A
 Frequencies --   3018.4658              3030.9893              3035.5575
 Red. masses --      1.0779                 1.0599                 1.0620
 Frc consts  --      5.7864                 5.7371                 5.7655
 IR Inten    --      2.7358                35.6064                 8.1892

                     67                     68                     69
                      A                      A                      A
 Frequencies --   3044.4394              3045.5973              3048.2863
 Red. masses --      1.0603                 1.0656                 1.0618
 Frc consts  --      5.7901                 5.8235                 5.8129
 IR Inten    --     23.8479                61.6213                38.5661

                     70                     71                     72
                      A                      A                      A
 Frequencies --   3061.1428              3066.2170              3070.2488
 Red. masses --      1.0621                 1.1052                 1.1045
 Frc consts  --      5.8638                 6.1218                 6.1342
 IR Inten    --     45.8368                 0.2957                16.9088

                     73                     74                     75
                      A                      A                      A
 Frequencies --   3070.6031              3084.3911              3086.7582
 Red. masses --      1.1041                 1.0917                 1.0879
 Frc consts  --      6.1334                 6.1194                 6.1070
 IR Inten    --     46.2943                36.1304                 6.8883

                     76                     77                     78
                      A                      A                      A
 Frequencies --   3087.2827              3090.5603              3099.5514
 Red. masses --      1.0985                 1.1021                 1.1038
 Frc consts  --      6.1689                 6.2023                 6.2482
 IR Inten    --      5.1673                40.0296                48.4769

 - Thermochemistry -
 -------------------
 Temperature   298.150 Kelvin.  Pressure   1.00000 Atm.
 Atom     1 has atomic number  8 and mass  15.99491

 Molecular mass:   182.11069 amu.
 Principal axes and moments of inertia in atomic units:
                           1         2         3
     Eigenvalues --  1596.794582064.768642557.56975
           X            0.99925  -0.03863   0.00000
           Y            0.03863   0.99925   0.00000
           Z           -0.00000  -0.00000   1.00000
 This molecule is an asymmetric top.
 Rotational symmetry number  1.
 Warning -- assumption of classical behavior for rotation
           may cause significant error
 Rotational temperatures (Kelvin)      0.05424     0.04195     0.03387
 Rotational constants (GHZ):           1.13023     0.87406     0.70565
 Zero-point vibrational energy     645850.3 (Joules/Mol)
                                  154.36192 (Kcal/Mol)
 Warning -- explicit consideration of  15 degrees of freedom as
           vibrations may cause significant error
 Vibrational temperatures:     66.40   134.43   326.03   353.19   427.35
          (Kelvin)            444.40   511.91   520.48   525.20   584.83
                              629.26   660.72   689.67   714.02   892.73
                              929.72   995.42  1051.58  1105.67  1164.41
                             1190.41  1201.23  1277.80  1281.68  1348.74
                             1353.09  1376.42  1401.08  1430.84  1477.40
                             1523.51  1526.52  1546.28  1568.89  1610.18
                             1612.15  1690.28  1692.98  1738.38  1768.54
                             1812.17  1816.92  1864.87  1868.25  1891.89
                             1911.69  1921.32  1942.39  1981.26  1982.52
                             2003.69  2005.56  2018.35  2023.61  2041.45
                             2050.19  2169.92  2174.87  2185.83  2193.56
                             2198.86  2229.13  2626.19  4342.90  4360.92
                             4367.49  4380.27  4381.94  4385.80  4404.30
                             4411.60  4417.40  4417.91  4437.75  4441.16
                             4441.91  4446.63  4459.56

 Zero-point correction=                           0.245991 (Hartree/Particle)
 Thermal correction to Energy=                    0.256178
 Thermal correction to Enthalpy=                  0.257122
 Thermal correction to Gibbs Free Energy=         0.210357
 Sum of electronic and zero-point Energies=           -603.029988
 Sum of electronic and thermal Energies=              -603.019801
 Sum of electronic and thermal Enthalpies=            -603.018857
 Sum of electronic and thermal Free Energies=         -603.065622

                     E (Thermal)             CV                S
                      KCal/Mol        Cal/Mol-Kelvin    Cal/Mol-Kelvin
 Total                  160.754             42.810             98.424
 Electronic               0.000              0.000              0.000
 Translational            0.889              2.981             41.505
 Rotational               0.889              2.981             30.512
 Vibrational            158.976             36.848             26.407
 Vibration     1          0.595              1.979              4.976
 Vibration     2          0.602              1.954              3.587
 Vibration     3          0.650              1.800              1.906
 Vibration     4          0.660              1.770              1.763
 Vibration     5          0.691              1.679              1.434
 Vibration     6          0.698              1.657              1.368
 Vibration     7          0.731              1.563              1.140
 Vibration     8          0.736              1.551              1.115
 Vibration     9          0.738              1.544              1.101
 Vibration    10          0.771              1.456              0.939
 Vibration    11          0.798              1.389              0.835
 Vibration    12          0.817              1.340              0.768
 Vibration    13          0.836              1.296              0.712
 Vibration    14          0.852              1.258              0.668
 Vibration    15          0.981              0.989              0.416

 Normal termination of Gaussian 16 at Sat Feb 24 02:52:39 2024.
