 Gaussian 16, Revision A.03,
 Gaussian 16:  EM64M-G16RevA.03 25-Dec-2016

 ---------------------
 # freq b3lyp/6-31g(d)
 ---------------------

 ---------
 good luck
 ---------
 Symbolic Z-matrix:
 Charge =  0 Multiplicity = 1

                         Standard orientation:
 ---------------------------------------------------------------------
 Center     Atomic      Atomic             Coordinates (Angstroms)
 Number     Number       Type             X           Y           Z
 ---------------------------------------------------------------------
      1          8           0        1.248459    2.774189   -0.586475
      2          6           0        0.529334    1.985197   -0.003838
      3          6           0       -0.885007    2.340088    0.432197
      4          6           0       -1.896289    1.282303   -0.052743
      5          6           0       -1.463634   -0.122930    0.367113
      6         17           0       -2.726133   -1.314906   -0.235484
      7          6           0       -0.064987   -0.493200   -0.148037
      8          6           0        0.395505   -1.902592    0.266245
      9          6           0        1.811092   -2.217238   -0.238844
     10          6           0        2.827077   -1.165865    0.227611
     11          6           0        2.385594    0.248855   -0.167380
     12          6           0        0.973137    0.564317    0.344010
     13          1           0       -1.134892    3.333814    0.050342
     14          1           0       -0.903781    2.389022    1.531333
     15          1           0       -1.971176    1.316785   -1.146392
     16          1           0       -2.892944    1.500914    0.343253
     17          1           0       -1.496998   -0.223210    1.457390
     18          1           0       -0.095972   -0.446486   -1.247375
     19          1           0        0.374477   -1.972921    1.364860
     20          1           0       -0.314502   -2.645732   -0.109970
     21          1           0        1.802105   -2.251481   -1.338043
     22          1           0        2.110466   -3.216526    0.100585
     23          1           0        2.933429   -1.224062    1.321214
     24          1           0        3.817698   -1.379572   -0.192426
     25          1           0        2.396640    0.354331   -1.260269
     26          1           0        3.084532    1.000286    0.214827
     27          1           0        0.976576    0.511111    1.447711
 ---------------------------------------------------------------------

 SCF Done:  E(RB3LYP) =  -925.541868847     A.U. after   14 cycles

 The electronic state is 1-A.
 Alpha  occ. eigenvalues -- -101.53220 -19.14448 -10.27772 -10.25862 -10.21223
 Alpha  occ. eigenvalues --  -10.20893 -10.20642 -10.20354 -10.18834 -10.18584
 Alpha  occ. eigenvalues --  -10.18499 -10.18473  -9.44859  -7.21229  -7.20287
 Alpha  occ. eigenvalues --   -7.20280  -1.04328  -0.88002  -0.83268  -0.80181
 Alpha  occ. eigenvalues --   -0.75386  -0.75335  -0.70206  -0.63362  -0.62897
 Alpha  occ. eigenvalues --   -0.58950  -0.56640  -0.54170  -0.48172  -0.47771
 Alpha  occ. eigenvalues --   -0.47025  -0.45864  -0.45388  -0.42985  -0.42809
 Alpha  occ. eigenvalues --   -0.41817  -0.40636  -0.38516  -0.37785  -0.37455
 Alpha  occ. eigenvalues --   -0.36378  -0.35742  -0.35041  -0.34336  -0.32811
 Alpha  occ. eigenvalues --   -0.31979  -0.31125  -0.29434  -0.29292  -0.24524
 Alpha virt. eigenvalues --   -0.02301   0.01541   0.07843   0.08872   0.10819
 Alpha virt. eigenvalues --    0.11690   0.12804   0.13361   0.14150   0.14842
 Alpha virt. eigenvalues --    0.15587   0.16631   0.17101   0.17368   0.18011

 Mulliken charges:
               1
     1  O   -0.444643
     2  C    0.452680
     3  C   -0.353480
     4  C   -0.264119
     5  C   -0.226684
     6  Cl  -0.094434
     7  C   -0.082508
     8  C   -0.265790
     9  C   -0.264540
    10  C   -0.265766
    11  C   -0.254435
    12  C   -0.188245
    13  H    0.173543
    14  H    0.158918
    15  H    0.167153
    16  H    0.166284
    17  H    0.176972
    18  H    0.144916
    19  H    0.126435
    20  H    0.163422
    21  H    0.135097
    22  H    0.137372
    23  H    0.127980
    24  H    0.138049
    25  H    0.144780
    26  H    0.151654
    27  H    0.139391
 Sum of Mulliken charges =  -0.00000

 Dipole moment (field-independent basis, Debye):
    X=              0.2050    Y=             -0.5531    Z=              1.7168  Tot=              1.8153
 Quadrupole moment (field-independent basis, Debye-Ang):
   XX=            -85.2583   YY=            -86.8158   ZZ=            -78.0924
   XY=            -10.0149   XZ=              0.3257   YZ=              3.4626

  Exact polarizability: 124.901   3.583 119.655  -0.525   0.136  87.970
 Approx polarizability: 163.992  16.883 163.290  -1.877  -2.737 147.893

                      1                      2                      3
                      A                      A                      A
 Frequencies --     68.9787                80.9578               146.4398
 Red. masses --      7.1447                 3.0995                 2.8159
 Frc consts  --      0.0200                 0.0120                 0.0356
 IR Inten    --      4.6119                 0.1330                 1.2098

                      4                      5                      6
                      A                      A                      A
 Frequencies --    185.8653               196.5795               269.3528
 Red. masses --      3.5446                 3.7289                 2.8943
 Frc consts  --      0.0721                 0.0849                 0.1237
 IR Inten    --      1.2057                 0.0330                 3.6606

                      7                      8                      9
                      A                      A                      A
 Frequencies --    292.2836               298.4383               340.9535
 Red. masses --      5.0103                 1.9818                 4.1832
 Frc consts  --      0.2522                 0.1040                 0.2865
 IR Inten    --      3.8928                 0.2030                 4.2084

                     10                     11                     12
                      A                      A                      A
 Frequencies --    377.2609               406.0576               430.0425
 Red. masses --      3.3196                 3.2389                 3.3219
 Frc consts  --      0.2784                 0.3146                 0.3620
 IR Inten    --      0.3238                 2.6829                 0.7323

                     13                     14                     15
                      A                      A                      A
 Frequencies --    469.3710               487.2702               524.4979
 Red. masses --      2.8858                 2.2465                 1.8601
 Frc consts  --      0.3746                 0.3143                 0.3015
 IR Inten    --      5.3222                 0.4408                 1.3616

                     16                     17                     18
                      A                      A                      A
 Frequencies --    577.8864               665.4977               762.6347
 Red. masses --      3.3967                 5.2260                 3.0140
 Frc consts  --      0.6683                 1.3637                 1.0328
 IR Inten    --      7.9779                16.7406                32.5507

                     19                     20                     21
                      A                      A                      A
 Frequencies --    790.1969               825.4146               848.9498
 Red. masses --      1.9846                 2.1117                 2.8273
 Frc consts  --      0.7301                 0.8477                 1.2006
 IR Inten    --      0.9844                 1.6249                12.3032

                     22                     23                     24
                      A                      A                      A
 Frequencies --    859.8923               876.5971               916.0273
 Red. masses --      1.6552                 2.1433                 1.4831
 Frc consts  --      0.7211                 0.9703                 0.7332
 IR Inten    --      0.9891                 6.3658                 4.7432

                     25                     26                     27
                      A                      A                      A
 Frequencies --    925.7425               973.6406               990.6535
 Red. masses --      2.5496                 2.2694                 1.9840
 Frc consts  --      1.2874                 1.2675                 1.1472
 IR Inten    --      7.9300                 0.5210                 5.1899

                     28                     29                     30
                      A                      A                      A
 Frequencies --   1018.5965              1043.3440              1064.0281
 Red. masses --      2.0157                 1.9025                 1.7548
 Frc consts  --      1.2322                 1.2202                 1.1705
 IR Inten    --      2.2306                 0.5585                 3.2426

                     31                     32                     33
                      A                      A                      A
 Frequencies --   1074.5155              1095.9313              1111.9257
 Red. masses --      1.5238                 2.3667                 2.3849
 Frc consts  --      1.0365                 1.6748                 1.7373
 IR Inten    --      2.3122                 7.2178                16.9577

                     34                     35                     36
                      A                      A                      A
 Frequencies --   1131.7939              1148.7618              1167.3532
 Red. masses --      2.0021                 1.9246                 1.7769
 Frc consts  --      1.5110                 1.4964                 1.4267
 IR Inten    --      4.5837                 0.1901                 2.1646

                     37                     38                     39
                      A                      A                      A
 Frequencies --   1211.6486              1230.6615              1243.3634
 Red. masses --      1.8214                 1.2686                 1.4157
 Frc consts  --      1.5755                 1.1320                 1.2895
 IR Inten    --     22.1701                 3.7733                11.2313

                     40                     41                     42
                      A                      A                      A
 Frequencies --   1270.4108              1280.8461              1299.7997
 Red. masses --      1.3055                 1.4601                 1.2627
 Frc consts  --      1.2414                 1.4113                 1.2569
 IR Inten    --     12.0738                 5.1203                10.3533

                     43                     44                     45
                      A                      A                      A
 Frequencies --   1320.0181              1327.5402              1341.2212
 Red. masses --      1.2656                 1.2967                 1.3822
 Frc consts  --      1.2993                 1.3465                 1.4650
 IR Inten    --      1.8871                 2.7581                13.2564

                     46                     47                     48
                      A                      A                      A
 Frequencies --   1359.2019              1370.4030              1383.5595
 Red. masses --      1.2731                 1.3565                 1.3799
 Frc consts  --      1.3858                 1.5010                 1.5563
 IR Inten    --      1.8996                 1.8527                 5.6898

                     49                     50                     51
                      A                      A                      A
 Frequencies --   1385.9462              1397.2145              1398.5724
 Red. masses --      1.3785                 1.4031                 1.4645
 Frc consts  --      1.5601                 1.6138                 1.6878
 IR Inten    --      2.0145                 2.7535                 2.4964

                     52                     53                     54
                      A                      A                      A
 Frequencies --   1406.3890              1416.0649              1497.9683
 Red. masses --      1.5101                 1.6511                 1.0892
 Frc consts  --      1.7598                 1.9507                 1.4400
 IR Inten    --      6.0684                 1.9171                 8.8181

                     55                     56                     57
                      A                      A                      A
 Frequencies --   1512.1664              1516.2680              1518.9516
 Red. masses --      1.0887                 1.0936                 1.0802
 Frc consts  --      1.4668                 1.4813                 1.4684
 IR Inten    --      2.6676                 1.5882                 9.3161

                     58                     59                     60
                      A                      A                      A
 Frequencies --   1526.5720              1531.8371              1814.2247
 Red. masses --      1.0907                 1.0995                11.6080
 Frc consts  --      1.4975                 1.5200                22.5108
 IR Inten    --      4.3920                 0.1436               170.7303

                     61                     62                     63
                      A                      A                      A
 Frequencies --   2971.6189              3012.7093              3021.0886
 Red. masses --      1.0798                 1.0747                 1.0714
 Frc consts  --      5.6181                 5.7470                 5.7614
 IR Inten    --      9.1425                 3.5828                22.0530

                     64                     65                     66
                      A                      A                      A
 Frequencies --   3023.6694              3029.9543              3032.0310
 Red. masses --      1.0757                 1.0692                 1.0647
 Frc consts  --      5.7944                 5.7832                 5.7671
 IR Inten    --      8.3046                 7.3906                52.1590

                     67                     68                     69
                      A                      A                      A
 Frequencies --   3051.2582              3063.5564              3076.3972
 Red. masses --      1.0666                 1.0639                 1.0929
 Frc consts  --      5.8509                 5.8830                 6.0941
 IR Inten    --     14.9901                10.7332                57.2310

                     70                     71                     72
                      A                      A                      A
 Frequencies --   3079.5793              3083.6686              3101.9926
 Red. masses --      1.0998                 1.0845                 1.0994
 Frc consts  --      6.1456                 6.0759                 6.2330
 IR Inten    --     52.2285                25.7379                28.7252

                     73                     74                     75
                      A                      A                      A
 Frequencies --   3106.2052              3114.5391              3124.6289
 Red. masses --      1.0928                 1.1022                 1.0955
 Frc consts  --      6.2122                 6.2993                 6.3019
 IR Inten    --     22.0876                23.9518                15.2840

 - Thermochemistry -
 -------------------
 Temperature   298.150 Kelvin.  Pressure   1.00000 Atm.
 Atom     1 has atomic number  8 and mass  15.99491

 Molecular mass:   186.08114 amu.
 Principal axes and moments of inertia in atomic units:
                           1         2         3
     Eigenvalues --  1861.949922447.505564079.27702
           X            0.98125  -0.19271  -0.00373
           Y            0.19273   0.98124   0.00490
           Z            0.00271  -0.00553   0.99998
 This molecule is an asymmetric top.
 Rotational symmetry number  1.
 Warning -- assumption of classical behavior for rotation
           may cause significant error
 Rotational temperatures (Kelvin)      0.04652     0.03539     0.02123
 Rotational constants (GHZ):           0.96927     0.73738     0.44242
 Zero-point vibrational energy     621444.9 (Joules/Mol)
                                  148.52890 (Kcal/Mol)
 Warning -- explicit consideration of  16 degrees of freedom as
           vibrations may cause significant error
 Vibrational temperatures:     99.24   116.48   210.69   267.42   282.83
          (Kelvin)            387.54   420.53   429.39   490.56   542.79
                              584.23   618.74   675.32   701.07   754.64
                              831.45   957.50  1097.26  1136.92  1187.59
                             1221.45  1237.19  1261.23  1317.96  1331.94
                             1400.85  1425.33  1465.53  1501.14  1530.90
                             1545.99  1576.80  1599.81  1628.40  1652.81
                             1679.56  1743.29  1770.65  1788.92  1827.84
                             1842.85  1870.12  1899.21  1910.03  1929.72
                             1955.59  1971.70  1990.63  1994.07  2010.28
                             2012.23  2023.48  2037.40  2155.24  2175.67
                             2181.57  2185.43  2196.40  2203.97  2610.26
                             4275.50  4334.62  4346.67  4350.39  4359.43
                             4362.42  4390.08  4407.77  4426.25  4430.83
                             4436.71  4463.08  4469.14  4481.13  4495.64

 Zero-point correction=                           0.236696 (Hartree/Particle)
 Thermal correction to Energy=                    0.247525
 Thermal correction to Enthalpy=                  0.248470
 Thermal correction to Gibbs Free Energy=         0.199939
 Sum of electronic and zero-point Energies=           -925.305173
 Sum of electronic and thermal Energies=              -925.294343
 Sum of electronic and thermal Enthalpies=            -925.293399
 Sum of electronic and thermal Free Energies=         -925.341930

                     E (Thermal)             CV                S
                      KCal/Mol        Cal/Mol-Kelvin    Cal/Mol-Kelvin
 Total                  155.325             43.073            102.142
 Electronic               0.000              0.000              0.000
 Translational            0.889              2.981             41.569
 Rotational               0.889              2.981             31.297
 Vibrational            153.547             37.111             29.275
 Vibration     1          0.598              1.969              4.182
 Vibration     2          0.600              1.962              3.868
 Vibration     3          0.617              1.907              2.718
 Vibration     4          0.632              1.859              2.269
 Vibration     5          0.636              1.845              2.165
 Vibration     6          0.674              1.730              1.600
 Vibration     7          0.688              1.688              1.461
 Vibration     8          0.692              1.677              1.426
 Vibration     9          0.720              1.594              1.208
 Vibration    10          0.748              1.519              1.050
 Vibration    11          0.771              1.457              0.941
 Vibration    12          0.791              1.405              0.859
 Vibration    13          0.826              1.318              0.739
 Vibration    14          0.843              1.278              0.691
 Vibration    15          0.879              1.196              0.600
 Vibration    16          0.934              1.079              0.489

 Normal termination of Gaussian 16 at Sat Feb 24 02:40:48 2024.
