 Gaussian 16, Revision A.03,
 Gaussian 16:  EM64M-G16RevA.03 25-Dec-2016

 ---------------------
 # freq b3lyp/6-31g(d)
 ---------------------

 ---------
 good luck
 ---------
 Symbolic Z-matrix:
 Charge =  0 Multiplicity = 1

                         Standard orientation:
 ---------------------------------------------------------------------
 Center     Atomic      Atomic             Coordinates (Angstroms)
 Number     Number       Type             X           Y           Z
 ---------------------------------------------------------------------
      1          8           0        3.150634    1.129263   -0.626194
      2          6           0        2.102440    0.800175   -0.100912
      3          6           0        1.693012   -0.674516    0.060363
      4          6           0        2.579090   -1.561611   -0.826718
      5          6           0        1.908085   -1.074468    1.541847
      6          6           0        0.201926   -0.849880   -0.350487
      7          6           0       -0.785459    0.148170    0.293035
      8          6           0       -2.291803   -0.134437   -0.052510
      9          6           0       -3.193852    0.859044    0.713094
     10          6           0       -2.587826   -0.007507   -1.561208
     11          6           0       -2.676299   -1.557184    0.410310
     12          6           0       -0.318003    1.579947   -0.040165
     13          6           0        1.124324    1.834500    0.439231
     14          1           0        2.292674   -2.614313   -0.716497
     15          1           0        2.481915   -1.287363   -1.882438
     16          1           0        3.633735   -1.456795   -0.557770
     17          1           0        2.958553   -0.948028    1.827092
     18          1           0        1.646416   -2.130540    1.680060
     19          1           0        1.298319   -0.488148    2.236065
     20          1           0       -0.081142   -1.882794   -0.117832
     21          1           0        0.142073   -0.752545   -1.443403
     22          1           0       -0.717023    0.033226    1.386272
     23          1           0       -3.070515    1.889243    0.363745
     24          1           0       -2.983638    0.840041    1.790121
     25          1           0       -4.249556    0.595875    0.577333
     26          1           0       -2.009357   -0.723312   -2.155615
     27          1           0       -3.648903   -0.206414   -1.754625
     28          1           0       -2.371347    0.998011   -1.938937
     29          1           0       -2.169349   -2.335656   -0.168826
     30          1           0       -3.754668   -1.716520    0.292150
     31          1           0       -2.432756   -1.711358    1.469286
     32          1           0       -0.363013    1.741821   -1.125685
     33          1           0       -0.973955    2.328772    0.414914
     34          1           0        1.482535    2.824255    0.140653
     35          1           0        1.150124    1.795026    1.538202
 ---------------------------------------------------------------------

 SCF Done:  E(RB3LYP) =  -545.766698734     A.U. after   14 cycles

 The electronic state is 1-A.
 Alpha  occ. eigenvalues --  -19.13116 -10.26335 -10.20166 -10.20151 -10.19218
 Alpha  occ. eigenvalues --  -10.18879 -10.18788 -10.18479 -10.18389 -10.17480
 Alpha  occ. eigenvalues --  -10.17467 -10.17447 -10.16894  -1.03007  -0.84710
 Alpha  occ. eigenvalues --   -0.81059  -0.77683  -0.72235  -0.68747  -0.68674
 Alpha  occ. eigenvalues --   -0.68457  -0.66312  -0.60105  -0.59668  -0.53100
 Alpha  occ. eigenvalues --   -0.50814  -0.47368  -0.46753  -0.44871  -0.44464
 Alpha  occ. eigenvalues --   -0.44210  -0.43161  -0.42562  -0.42274  -0.40610
 Alpha  occ. eigenvalues --   -0.39936  -0.38466  -0.37735  -0.37536  -0.37402
 Alpha  occ. eigenvalues --   -0.36175  -0.35831  -0.35515  -0.34475  -0.34285
 Alpha  occ. eigenvalues --   -0.33538  -0.32858  -0.31141  -0.30412  -0.29770
 Alpha  occ. eigenvalues --   -0.23093
 Alpha virt. eigenvalues --   -0.01029   0.07137   0.08853   0.10103   0.11220
 Alpha virt. eigenvalues --    0.11637   0.12591   0.13639   0.14296   0.14611
 Alpha virt. eigenvalues --    0.15531   0.15735   0.16216   0.16813   0.17049

 Mulliken charges:
               1
     1  O   -0.454828
     2  C    0.453621
     3  C    0.008031
     4  C   -0.439439
     5  C   -0.463294
     6  C   -0.289213
     7  C   -0.078147
     8  C    0.103313
     9  C   -0.452541
    10  C   -0.456803
    11  C   -0.452322
    12  C   -0.286958
    13  C   -0.352769
    14  H    0.131457
    15  H    0.147584
    16  H    0.159766
    17  H    0.158570
    18  H    0.150401
    19  H    0.147851
    20  H    0.137193
    21  H    0.137422
    22  H    0.114218
    23  H    0.144422
    24  H    0.137041
    25  H    0.140102
    26  H    0.144703
    27  H    0.140517
    28  H    0.143749
    29  H    0.145018
    30  H    0.139782
    31  H    0.137287
    32  H    0.143388
    33  H    0.143710
    34  H    0.161708
    35  H    0.155462
 Sum of Mulliken charges =  -0.00000

 Dipole moment (field-independent basis, Debye):
    X=             -2.6157    Y=             -0.8195    Z=              1.1869  Tot=              2.9870
 Quadrupole moment (field-independent basis, Debye-Ang):
   XX=            -93.5661   YY=            -82.8615   ZZ=            -82.5949
   XY=             -4.6011   XZ=              4.1823   YZ=              1.3113

  Exact polarizability: 142.310  -0.116 120.356  -2.625  -0.350 109.578
 Approx polarizability: 184.980   4.609 171.022  -7.893  -2.835 169.237

                      1                      2                      3
                      A                      A                      A
 Frequencies --     29.7780                59.6779               108.8348
 Red. masses --      2.5587                 5.4859                 2.5570
 Frc consts  --      0.0013                 0.0115                 0.0178
 IR Inten    --      0.0825                 2.7426                 0.1233

                      4                      5                      6
                      A                      A                      A
 Frequencies --    149.5428               173.2498               211.8241
 Red. masses --      2.5633                 2.1463                 1.0579
 Frc consts  --      0.0338                 0.0380                 0.0280
 IR Inten    --      0.5442                 0.1254                 0.1051

                      7                      8                      9
                      A                      A                      A
 Frequencies --    230.9696               236.3713               254.4784
 Red. masses --      1.3482                 1.5547                 1.1750
 Frc consts  --      0.0424                 0.0512                 0.0448
 IR Inten    --      0.0955                 0.1200                 0.1759

                     10                     11                     12
                      A                      A                      A
 Frequencies --    258.0493               265.1977               272.5783
 Red. masses --      1.4224                 1.2470                 2.1139
 Frc consts  --      0.0558                 0.0517                 0.0925
 IR Inten    --      0.2617                 0.0706                 0.4448

                     13                     14                     15
                      A                      A                      A
 Frequencies --    310.0508               313.7935               337.2042
 Red. masses --      2.4136                 2.4624                 2.2654
 Frc consts  --      0.1367                 0.1429                 0.1518
 IR Inten    --      1.1022                 1.1473                 0.7951

                     16                     17                     18
                      A                      A                      A
 Frequencies --    349.1921               370.3795               394.1179
 Red. masses --      2.4952                 2.1316                 2.1488
 Frc consts  --      0.1793                 0.1723                 0.1967
 IR Inten    --      1.6175                 0.3066                 0.0828

                     19                     20                     21
                      A                      A                      A
 Frequencies --    438.6317               450.9232               461.6642
 Red. masses --      2.7775                 2.5707                 2.7164
 Frc consts  --      0.3149                 0.3080                 0.3411
 IR Inten    --      2.2795                 0.5559                 1.9818

                     22                     23                     24
                      A                      A                      A
 Frequencies --    514.9474               531.5604               563.9487
 Red. masses --      2.2463                 2.4065                 3.7108
 Frc consts  --      0.3509                 0.4006                 0.6953
 IR Inten    --      1.2764                 0.8335                 3.6919

                     25                     26                     27
                      A                      A                      A
 Frequencies --    675.1711               703.4886               778.2519
 Red. masses --      3.3340                 3.7444                 2.6250
 Frc consts  --      0.8954                 1.0918                 0.9367
 IR Inten    --      1.8897                 0.7985                 1.0537

                     28                     29                     30
                      A                      A                      A
 Frequencies --    823.7766               855.6580               884.3669
 Red. masses --      1.9450                 2.4429                 2.4163
 Frc consts  --      0.7777                 1.0538                 1.1134
 IR Inten    --      2.3635                 4.2070                 4.1801

                     31                     32                     33
                      A                      A                      A
 Frequencies --    913.5337               939.7622               941.0008
 Red. masses --      1.9023                 1.7814                 1.7666
 Frc consts  --      0.9354                 0.9269                 0.9217
 IR Inten    --      2.6909                 0.5442                 0.4158

                     34                     35                     36
                      A                      A                      A
 Frequencies --    956.9994               963.1283               969.8643
 Red. masses --      1.7220                 1.9787                 1.2600
 Frc consts  --      0.9292                 1.0814                 0.6983
 IR Inten    --      1.5021                 3.2799                 0.3917

                     37                     38                     39
                      A                      A                      A
 Frequencies --    972.5103              1002.5017              1035.4493
 Red. masses --      1.4435                 2.0042                 1.3404
 Frc consts  --      0.8044                 1.1868                 0.8467
 IR Inten    --      2.2980                 8.8080                 0.2876

                     40                     41                     42
                      A                      A                      A
 Frequencies --   1045.5593              1049.3363              1077.5033
 Red. masses --      1.4877                 1.5651                 1.8154
 Frc consts  --      0.9582                 1.0154                 1.2419
 IR Inten    --      1.7240                 0.3874                 0.6772

                     43                     44                     45
                      A                      A                      A
 Frequencies --   1109.6632              1131.8125              1158.1778
 Red. masses --      2.3886                 1.9534                 1.5244
 Frc consts  --      1.7329                 1.4743                 1.2048
 IR Inten    --     10.1752                14.9812                 7.9034

                     46                     47                     48
                      A                      A                      A
 Frequencies --   1191.9552              1218.7191              1239.6291
 Red. masses --      2.0256                 1.9244                 2.2521
 Frc consts  --      1.6956                 1.6840                 2.0390
 IR Inten    --     13.8654                 0.6638                 4.8394

                     49                     50                     51
                      A                      A                      A
 Frequencies --   1242.8398              1260.5715              1269.3331
 Red. masses --      2.4496                 2.4030                 2.2412
 Frc consts  --      2.2293                 2.2498                 2.1275
 IR Inten    --      1.9030                 3.3655                23.7436

                     52                     53                     54
                      A                      A                      A
 Frequencies --   1293.5249              1320.5939              1344.8892
 Red. masses --      1.7030                 1.5556                 1.3577
 Frc consts  --      1.6788                 1.5984                 1.4468
 IR Inten    --      1.7725                 3.0891                 0.8875

                     55                     56                     57
                      A                      A                      A
 Frequencies --   1361.0139              1372.4619              1396.9077
 Red. masses --      1.4305                 1.4598                 1.4280
 Frc consts  --      1.5612                 1.6201                 1.6417
 IR Inten    --      2.2819                 8.5120                 0.3800

                     58                     59                     60
                      A                      A                      A
 Frequencies --   1414.0243              1425.4312              1429.9346
 Red. masses --      1.4530                 1.2220                 1.2317
 Frc consts  --      1.7117                 1.4629                 1.4838
 IR Inten    --      0.0533                 3.3417                 4.1549

                     61                     62                     63
                      A                      A                      A
 Frequencies --   1431.5266              1447.1154              1461.5247
 Red. masses --      1.2315                 1.2225                 1.2223
 Frc consts  --      1.4869                 1.5083                 1.5383
 IR Inten    --     10.0943                 6.2193                 5.8688

                     64                     65                     66
                      A                      A                      A
 Frequencies --   1498.0208              1508.5685              1512.9763
 Red. masses --      1.0862                 1.0690                 1.0493
 Frc consts  --      1.4361                 1.4334                 1.4152
 IR Inten    --      8.4026                 1.0667                 0.8571

                     67                     68                     69
                      A                      A                      A
 Frequencies --   1516.8479              1518.1730              1518.8834
 Red. masses --      1.0476                 1.0446                 1.0631
 Frc consts  --      1.4201                 1.4185                 1.4451
 IR Inten    --      0.8958                 1.4727                 1.6013

                     70                     71                     72
                      A                      A                      A
 Frequencies --   1523.4442              1530.7408              1530.9602
 Red. masses --      1.0511                 1.0850                 1.0548
 Frc consts  --      1.4373                 1.4979                 1.4566
 IR Inten    --      0.2765                 3.7199                 6.6268

                     73                     74                     75
                      A                      A                      A
 Frequencies --   1539.7293              1540.7053              1543.2804
 Red. masses --      1.0510                 1.0557                 1.0619
 Frc consts  --      1.4680                 1.4765                 1.4901
 IR Inten    --      8.9325                 1.2171                 4.7821

                     76                     77                     78
                      A                      A                      A
 Frequencies --   1551.8495              1803.2717              2999.7025
 Red. masses --      1.0558                11.6003                 1.0811
 Frc consts  --      1.4981                22.2250                 5.7315
 IR Inten    --     14.1332               175.0403                11.7487

                     79                     80                     81
                      A                      A                      A
 Frequencies --   3030.0030              3033.7886              3038.8925
 Red. masses --      1.0687                 1.0619                 1.0380
 Frc consts  --      5.7810                 5.7583                 5.6476
 IR Inten    --      8.0453                 5.1860                20.2049

                     82                     83                     84
                      A                      A                      A
 Frequencies --   3041.9014              3045.0739              3047.8262
 Red. masses --      1.0395                 1.0532                 1.0386
 Frc consts  --      5.6674                 5.7539                 5.6844
 IR Inten    --     20.6360                18.2769                34.9264

                     85                     86                     87
                      A                      A                      A
 Frequencies --   3051.8359              3054.6831              3084.5973
 Red. masses --      1.0429                 1.0390                 1.0984
 Frc consts  --      5.7231                 5.7124                 6.1577
 IR Inten    --     37.6630                23.5496                28.0422

                     88                     89                     90
                      A                      A                      A
 Frequencies --   3098.2528              3099.4866              3104.8698
 Red. masses --      1.0990                 1.1017                 1.1011
 Frc consts  --      6.2153                 6.2360                 6.2543
 IR Inten    --     23.4102                 1.2424                40.8681

                     91                     92                     93
                      A                      A                      A
 Frequencies --   3109.5246              3112.3775              3114.0411
 Red. masses --      1.1002                 1.1009                 1.0959
 Frc consts  --      6.2676                 6.2835                 6.2612
 IR Inten    --     73.6882                18.3724                13.4747

                     94                     95                     96
                      A                      A                      A
 Frequencies --   3117.7519              3119.4121              3121.6671
 Red. masses --      1.1019                 1.1013                 1.0990
 Frc consts  --      6.3109                 6.3142                 6.3101
 IR Inten    --      5.4341                31.2447                72.2941

                     97                     98                     99
                      A                      A                      A
 Frequencies --   3122.3036              3127.5629              3140.3492
 Red. masses --      1.0991                 1.1012                 1.1010
 Frc consts  --      6.3133                 6.3464                 6.3973
 IR Inten    --     34.8527                33.3019                23.2926

 - Thermochemistry -
 -------------------
 Temperature   298.150 Kelvin.  Pressure   1.00000 Atm.
 Atom     1 has atomic number  8 and mass  15.99491

 Molecular mass:   182.16707 amu.
 Principal axes and moments of inertia in atomic units:
                           1         2         3
     Eigenvalues --  1350.525483570.157984017.62823
           X            0.99976  -0.02094   0.00706
           Y            0.02083   0.99966   0.01561
           Z           -0.00738  -0.01546   0.99985
 This molecule is an asymmetric top.
 Rotational symmetry number  1.
 Warning -- assumption of classical behavior for rotation
           may cause significant error
 Rotational temperatures (Kelvin)      0.06413     0.02426     0.02156
 Rotational constants (GHZ):           1.33633     0.50551     0.44921
 Zero-point vibrational energy     842469.1 (Joules/Mol)
                                  201.35494 (Kcal/Mol)
 Warning -- explicit consideration of  24 degrees of freedom as
           vibrations may cause significant error
 Vibrational temperatures:     42.84    85.86   156.59   215.16   249.27
          (Kelvin)            304.77   332.31   340.09   366.14   371.28
                              381.56   392.18   446.09   451.48   485.16
                              502.41   532.89   567.05   631.09   648.78
                              664.23   740.89   764.80   811.40   971.42
                             1012.16  1119.73  1185.23  1231.10  1272.41
                             1314.37  1352.11  1353.89  1376.91  1385.73
                             1395.42  1399.23  1442.38  1489.78  1504.33
                             1509.76  1550.29  1596.56  1628.43  1666.36
                             1714.96  1753.47  1783.55  1788.17  1813.68
                             1826.29  1861.09  1900.04  1935.00  1958.20
                             1974.67  2009.84  2034.47  2050.88  2057.36
                             2059.65  2082.08  2102.81  2155.32  2170.49
                             2176.84  2182.41  2184.31  2185.33  2191.90
                             2202.39  2202.71  2215.33  2216.73  2220.44
                             2232.77  2594.51  4315.90  4359.50  4364.95
                             4372.29  4376.62  4381.18  4385.14  4390.91
                             4395.01  4438.05  4457.69  4459.47  4467.22
                             4473.91  4478.02  4480.41  4485.75  4488.14
                             4491.38  4492.30  4499.87  4518.26

 Zero-point correction=                           0.320880 (Hartree/Particle)
 Thermal correction to Energy=                    0.335687
 Thermal correction to Enthalpy=                  0.336631
 Thermal correction to Gibbs Free Energy=         0.280368
 Sum of electronic and zero-point Energies=           -545.445819
 Sum of electronic and thermal Energies=              -545.431012
 Sum of electronic and thermal Enthalpies=            -545.430068
 Sum of electronic and thermal Free Energies=         -545.486331

                     E (Thermal)             CV                S
                      KCal/Mol        Cal/Mol-Kelvin    Cal/Mol-Kelvin
 Total                  210.647             57.983            118.415
 Electronic               0.000              0.000              0.000
 Translational            0.889              2.981             41.506
 Rotational               0.889              2.981             31.338
 Vibrational            208.869             52.022             45.571
 Vibration     1          0.594              1.984              5.844
 Vibration     2          0.597              1.974              4.468
 Vibration     3          0.606              1.942              3.290
 Vibration     4          0.618              1.903              2.678
 Vibration     5          0.627              1.875              2.400
 Vibration     6          0.643              1.823              2.028
 Vibration     7          0.653              1.794              1.871
 Vibration     8          0.655              1.785              1.830
 Vibration     9          0.665              1.755              1.699
 Vibration    10          0.667              1.749              1.675
 Vibration    11          0.671              1.737              1.627
 Vibration    12          0.676              1.724              1.580
 Vibration    13          0.699              1.655              1.362
 Vibration    14          0.702              1.647              1.342
 Vibration    15          0.718              1.601              1.225
 Vibration    16          0.726              1.577              1.170
 Vibration    17          0.742              1.533              1.078
 Vibration    18          0.761              1.483              0.985
 Vibration    19          0.799              1.386              0.831
 Vibration    20          0.810              1.359              0.793
 Vibration    21          0.819              1.335              0.761
 Vibration    22          0.870              1.217              0.622
 Vibration    23          0.887              1.180              0.584
 Vibration    24          0.920              1.109              0.516

 Normal termination of Gaussian 16 at Sat Feb 24 03:08:40 2024.
