 Gaussian 16, Revision A.03,
 Gaussian 16:  EM64M-G16RevA.03 25-Dec-2016

 ---------------------
 # freq b3lyp/6-31g(d)
 ---------------------

 ---------
 good luck
 ---------
 Symbolic Z-matrix:
 Charge =  0 Multiplicity = 1

                         Standard orientation:
 ---------------------------------------------------------------------
 Center     Atomic      Atomic             Coordinates (Angstroms)
 Number     Number       Type             X           Y           Z
 ---------------------------------------------------------------------
      1          8           0       -2.733326   -0.107468   -0.501402
      2          6           0       -1.564446   -0.206070   -0.171738
      3          6           0       -0.590671   -1.115640   -0.907172
      4          6           0        0.420479   -0.292494   -1.746541
      5          6           0        1.415351    0.549019   -0.914320
      6          6           0        2.021480   -0.295657    0.229217
      7          6           0        0.863117    1.912809   -0.438622
      8          6           0       -0.441955    1.956013    0.404559
      9          6           0       -0.991924    0.624848    0.978908
     10          6           0        0.017613   -0.163547    1.848966
     11          6           0        0.979530   -1.070641    1.055484
     12          6           0        0.165888   -1.983558    0.121168
     13          1           0       -1.188461   -1.737112   -1.582366
     14          1           0        0.992715   -1.012566   -2.347839
     15          1           0       -0.116823    0.348125   -2.457975
     16          1           0        2.244689    0.807861   -1.587668
     17          1           0        2.718002   -1.026654   -0.206241
     18          1           0        2.621611    0.349810    0.885148
     19          1           0        1.668647    2.397582    0.127872
     20          1           0        0.714024    2.538777   -1.327874
     21          1           0       -0.290161    2.634500    1.253308
     22          1           0       -1.249765    2.399220   -0.189679
     23          1           0       -1.855321    0.898593    1.596166
     24          1           0        0.585807    0.538814    2.474586
     25          1           0       -0.551377   -0.799466    2.540721
     26          1           0        1.520497   -1.693535    1.780882
     27          1           0       -0.543162   -2.591665    0.698887
     28          1           0        0.828920   -2.683029   -0.406170
 ---------------------------------------------------------------------

 SCF Done:  E(RB3LYP) =  -504.039046229     A.U. after   13 cycles

 The electronic state is 1-A.
 Alpha  occ. eigenvalues --  -19.12745 -10.25956 -10.19248 -10.19121 -10.19052
 Alpha  occ. eigenvalues --  -10.18960 -10.18909 -10.18825 -10.18672 -10.18656
 Alpha  occ. eigenvalues --  -10.18426 -10.18215  -1.02629  -0.85872  -0.78757
 Alpha  occ. eigenvalues --   -0.78376  -0.76023  -0.69911  -0.66058  -0.63373
 Alpha  occ. eigenvalues --   -0.61659  -0.57567  -0.53032  -0.50060  -0.47984
 Alpha  occ. eigenvalues --   -0.46493  -0.45422  -0.44423  -0.44282  -0.42510
 Alpha  occ. eigenvalues --   -0.41786  -0.40748  -0.39971  -0.37955  -0.36860
 Alpha  occ. eigenvalues --   -0.36704  -0.35584  -0.34202  -0.32788  -0.32226
 Alpha  occ. eigenvalues --   -0.31776  -0.30150  -0.29752  -0.29397  -0.22736
 Alpha virt. eigenvalues --   -0.00860   0.05693   0.10060   0.10962   0.11304
 Alpha virt. eigenvalues --    0.12790   0.13228   0.13870   0.15584   0.16737
 Alpha virt. eigenvalues --    0.17136   0.17424   0.17911   0.18459   0.18798

 Mulliken charges:
               1
     1  O   -0.465412
     2  C    0.451298
     3  C   -0.163963
     4  C   -0.284747
     5  C   -0.087202
     6  C   -0.268805
     7  C   -0.273286
     8  C   -0.288313
     9  C   -0.160513
    10  C   -0.281123
    11  C   -0.087933
    12  C   -0.283255
    13  H    0.143445
    14  H    0.138968
    15  H    0.144740
    16  H    0.125359
    17  H    0.128020
    18  H    0.127686
    19  H    0.133882
    20  H    0.137509
    21  H    0.142457
    22  H    0.155559
    23  H    0.147894
    24  H    0.131508
    25  H    0.138941
    26  H    0.123618
    27  H    0.139499
    28  H    0.134166
 Sum of Mulliken charges =  -0.00000

 Dipole moment (field-independent basis, Debye):
    X=              3.0536    Y=             -0.0221    Z=              0.6612  Tot=              3.1244
 Quadrupole moment (field-independent basis, Debye-Ang):
   XX=            -83.2234   YY=            -70.6892   ZZ=            -71.2845
   XY=             -0.2879   XZ=             -2.8060   YZ=              0.1571

  Exact polarizability: 109.492  -0.874 105.149   0.338   1.534 101.563
 Approx polarizability: 165.935  -1.459 148.139   4.365   2.731 148.392

                      1                      2                      3
                      A                      A                      A
 Frequencies --     51.8391               121.3809               246.2799
 Red. masses --      2.6999                 3.1061                 2.3466
 Frc consts  --      0.0043                 0.0270                 0.0839
 IR Inten    --      1.5833                 2.0954                 0.0595

                      4                      5                      6
                      A                      A                      A
 Frequencies --    255.8778               329.5117               344.9850
 Red. masses --      2.5661                 3.5034                 2.5226
 Frc consts  --      0.0990                 0.2241                 0.1769
 IR Inten    --      0.9300                 0.1396                 0.5107

                      7                      8                      9
                      A                      A                      A
 Frequencies --    350.7197               383.3659               401.7648
 Red. masses --      3.6650                 2.4758                 1.9600
 Frc consts  --      0.2656                 0.2144                 0.1864
 IR Inten    --      0.2598                 0.3571                 0.9173

                     10                     11                     12
                      A                      A                      A
 Frequencies --    465.6386               497.1455               549.7496
 Red. masses --      4.3516                 2.4858                 4.5842
 Frc consts  --      0.5559                 0.3620                 0.8163
 IR Inten    --     11.2522                 0.2755                 0.2957

                     13                     14                     15
                      A                      A                      A
 Frequencies --    606.2713               663.9090               727.7127
 Red. masses --      4.5632                 4.2820                 3.1731
 Frc consts  --      0.9882                 1.1120                 0.9901
 IR Inten    --      0.2938                 1.1603                 0.3854

                     16                     17                     18
                      A                      A                      A
 Frequencies --    758.1920               776.5746               782.6697
 Red. masses --      3.5196                 2.0489                 2.2443
 Frc consts  --      1.1921                 0.7280                 0.8100
 IR Inten    --      0.9892                 0.2029                 0.7562

                     19                     20                     21
                      A                      A                      A
 Frequencies --    811.2671               846.5104               877.5302
 Red. masses --      3.0358                 1.8966                 2.4914
 Frc consts  --      1.1772                 0.8008                 1.1304
 IR Inten    --      1.1597                 4.2203                 2.7262

                     22                     23                     24
                      A                      A                      A
 Frequencies --    899.0406               923.6165               938.1463
 Red. masses --      2.3541                 2.0050                 2.1360
 Frc consts  --      1.1211                 1.0077                 1.1076
 IR Inten    --      0.5084                 0.7278                 2.2617

                     25                     26                     27
                      A                      A                      A
 Frequencies --    953.7100               977.3869               993.0059
 Red. masses --      2.0281                 2.8695                 2.3703
 Frc consts  --      1.0868                 1.6151                 1.3771
 IR Inten    --      1.8241                 7.2667                 0.4880

                     28                     29                     30
                      A                      A                      A
 Frequencies --   1017.4935              1044.7883              1068.6910
 Red. masses --      2.2640                 2.2693                 1.8666
 Frc consts  --      1.3810                 1.4595                 1.2561
 IR Inten    --      8.2986                 0.8834                 2.0340

                     31                     32                     33
                      A                      A                      A
 Frequencies --   1086.8181              1091.0262              1124.6382
 Red. masses --      1.7496                 2.2980                 1.5967
 Frc consts  --      1.2176                 1.6117                 1.1899
 IR Inten    --      6.3709                10.9048                 0.6930

                     34                     35                     36
                      A                      A                      A
 Frequencies --   1138.8819              1153.2444              1162.2572
 Red. masses --      1.5471                 1.0713                 1.7836
 Frc consts  --      1.1823                 0.8395                 1.4196
 IR Inten    --      8.8849                 0.0673                 1.3259

                     37                     38                     39
                      A                      A                      A
 Frequencies --   1233.6812              1241.9335              1250.5663
 Red. masses --      1.1543                 1.1130                 1.5574
 Frc consts  --      1.0351                 1.0114                 1.4350
 IR Inten    --      0.0339                 0.1818                13.1988

                     40                     41                     42
                      A                      A                      A
 Frequencies --   1261.0453              1281.6954              1294.6069
 Red. masses --      1.1258                 1.3559                 1.4702
 Frc consts  --      1.0548                 1.3124                 1.4518
 IR Inten    --      1.1502                 4.9712                 4.8368

                     43                     44                     45
                      A                      A                      A
 Frequencies --   1308.9119              1340.5577              1341.0810
 Red. masses --      1.3638                 1.4967                 1.6591
 Frc consts  --      1.3767                 1.5847                 1.7580
 IR Inten    --      0.3725                 3.4593                 0.1964

                     46                     47                     48
                      A                      A                      A
 Frequencies --   1360.9755              1371.5462              1376.1201
 Red. masses --      1.5826                 1.3160                 1.6299
 Frc consts  --      1.7271                 1.4586                 1.8185
 IR Inten    --      1.3240                 0.1638                 1.1352

                     49                     50                     51
                      A                      A                      A
 Frequencies --   1385.1819              1388.6368              1401.6077
 Red. masses --      1.3109                 1.6085                 1.4319
 Frc consts  --      1.4820                 1.8274                 1.6573
 IR Inten    --      0.2308                 2.0077                 5.8588

                     52                     53                     54
                      A                      A                      A
 Frequencies --   1406.3616              1415.1835              1418.7243
 Red. masses --      1.5076                 1.4032                 1.4352
 Frc consts  --      1.7568                 1.6558                 1.7020
 IR Inten    --      5.2927                 3.5471                 4.6893

                     55                     56                     57
                      A                      A                      A
 Frequencies --   1426.9439              1509.5577              1511.2361
 Red. masses --      1.3659                 1.0850                 1.0848
 Frc consts  --      1.6386                 1.4568                 1.4598
 IR Inten    --      0.5983                 2.1942                 0.7663

                     58                     59                     60
                      A                      A                      A
 Frequencies --   1516.9041              1521.4774              1533.1020
 Red. masses --      1.0844                 1.0857                 1.0936
 Frc consts  --      1.4701                 1.4808                 1.5144
 IR Inten    --      7.0047                 7.3076                11.3651

                     61                     62                     63
                      A                      A                      A
 Frequencies --   1542.5666              1803.3804              3011.7883
 Red. masses --      1.0868                11.0887                 1.0754
 Frc consts  --      1.5237                21.2474                 5.7476
 IR Inten    --      1.7650               185.6076                 2.2714

                     64                     65                     66
                      A                      A                      A
 Frequencies --   3020.7833              3024.5176              3028.7839
 Red. masses --      1.0689                 1.0631                 1.0620
 Frc consts  --      5.7466                 5.7300                 5.7403
 IR Inten    --      8.6658                14.6695                21.3424

                     67                     68                     69
                      A                      A                      A
 Frequencies --   3030.6160              3037.7398              3044.9430
 Red. masses --      1.0617                 1.0684                 1.0736
 Frc consts  --      5.7456                 5.8088                 5.8645
 IR Inten    --     21.9020                84.5666               103.4319

                     70                     71                     72
                      A                      A                      A
 Frequencies --   3049.6738              3056.4022              3059.9782
 Red. masses --      1.0677                 1.1031                 1.1029
 Frc consts  --      5.8505                 6.0714                 6.0844
 IR Inten    --     41.2554                 6.9427                22.1933

                     73                     74                     75
                      A                      A                      A
 Frequencies --   3062.7514              3068.0553              3070.4686
 Red. masses --      1.1001                 1.1018                 1.0890
 Frc consts  --      6.0798                 6.1108                 6.0490
 IR Inten    --     59.3650                18.2814                42.4116

                     76                     77                     78
                      A                      A                      A
 Frequencies --   3071.2130              3081.6705              3089.0230
 Red. masses --      1.1026                 1.0857                 1.1033
 Frc consts  --      6.1277                 6.0749                 6.2030
 IR Inten    --     39.6060                27.3585                50.6069

 - Thermochemistry -
 -------------------
 Temperature   298.150 Kelvin.  Pressure   1.00000 Atm.
 Atom     1 has atomic number  8 and mass  15.99491

 Molecular mass:   164.12012 amu.
 Principal axes and moments of inertia in atomic units:
                           1         2         3
     Eigenvalues --  1423.680091674.902521871.60723
           X            0.99943  -0.01696  -0.02919
           Y            0.01714   0.99983   0.00606
           Z            0.02909  -0.00656   0.99956
 This molecule is an asymmetric top.
 Rotational symmetry number  1.
 Warning -- assumption of classical behavior for rotation
           may cause significant error
 Rotational temperatures (Kelvin)      0.06084     0.05171     0.04628
 Rotational constants (GHZ):           1.26766     1.07752     0.96427
 Zero-point vibrational energy     667956.7 (Joules/Mol)
                                  159.64547 (Kcal/Mol)
 Warning -- explicit consideration of  13 degrees of freedom as
           vibrations may cause significant error
 Vibrational temperatures:     74.58   174.64   354.34   368.15   474.09
          (Kelvin)            496.36   504.61   551.58   578.05   669.95
                              715.28   790.97   872.29   955.22  1047.02
                             1090.87  1117.32  1126.09  1167.23  1217.94
                             1262.57  1293.52  1328.88  1349.78  1372.18
                             1406.24  1428.71  1463.95  1503.22  1537.61
                             1563.69  1569.74  1618.10  1638.60  1659.26
                             1672.23  1774.99  1786.87  1799.29  1814.36
                             1844.07  1862.65  1883.23  1928.76  1929.52
                             1958.14  1973.35  1979.93  1992.97  1997.94
                             2016.60  2023.44  2036.13  2041.23  2053.05
                             2171.92  2174.33  2182.49  2189.07  2205.79
                             2219.41  2594.66  4333.29  4346.23  4351.61
                             4357.74  4360.38  4370.63  4380.99  4387.80
                             4397.48  4402.63  4406.62  4414.25  4417.72
                             4418.79  4433.84  4444.42

 Zero-point correction=                           0.254411 (Hartree/Particle)
 Thermal correction to Energy=                    0.263713
 Thermal correction to Enthalpy=                  0.264658
 Thermal correction to Gibbs Free Energy=         0.220007
 Sum of electronic and zero-point Energies=           -503.784635
 Sum of electronic and thermal Energies=              -503.775333
 Sum of electronic and thermal Enthalpies=            -503.774389
 Sum of electronic and thermal Free Energies=         -503.819039

                     E (Thermal)             CV                S
                      KCal/Mol        Cal/Mol-Kelvin    Cal/Mol-Kelvin
 Total                  165.483             39.519             93.975
 Electronic               0.000              0.000              0.000
 Translational            0.889              2.981             41.195
 Rotational               0.889              2.981             29.880
 Vibrational            163.705             33.557             22.901
 Vibration     1          0.596              1.977              4.746
 Vibration     2          0.609              1.931              3.078
 Vibration     3          0.661              1.769              1.757
 Vibration     4          0.666              1.753              1.690
 Vibration     5          0.712              1.617              1.262
 Vibration     6          0.723              1.585              1.189
 Vibration     7          0.728              1.574              1.163
 Vibration     8          0.753              1.506              1.026
 Vibration     9          0.767              1.466              0.956
 Vibration    10          0.823              1.326              0.750
 Vibration    11          0.853              1.256              0.665
 Vibration    12          0.905              1.140              0.545
 Vibration    13          0.965              1.019              0.439

 Normal termination of Gaussian 16 at Thu Feb 22 10:58:45 2024.
