 Gaussian 16, Revision A.03,
 Gaussian 16:  EM64M-G16RevA.03 25-Dec-2016

 ---------------------
 # freq b3lyp/6-31g(d)
 ---------------------

 ---------
 good luck
 ---------
 Symbolic Z-matrix:
 Charge =  0 Multiplicity = 1

                         Standard orientation:
 ---------------------------------------------------------------------
 Center     Atomic      Atomic             Coordinates (Angstroms)
 Number     Number       Type             X           Y           Z
 ---------------------------------------------------------------------
      1          8           0        2.676394    2.282075   -0.565644
      2          6           0        1.709752    1.760011   -0.043121
      3          6           0        0.435917    2.532885    0.272184
      4          6           0       -0.805513    1.814459   -0.289988
      5          6           0       -0.848496    0.350570    0.155098
      6          8           0       -1.972381   -0.312008   -0.481972
      7          6           0       -3.179980   -0.205981    0.126066
      8          8           0       -3.369795    0.404626    1.155197
      9          6           0       -4.235831   -0.951237   -0.656880
     10          6           0        0.416853   -0.418412   -0.243135
     11          6           0        0.379896   -1.895757    0.186719
     12          6           0        1.668854   -2.636412   -0.198066
     13          6           0        2.912731   -1.936875    0.368801
     14          6           0        2.965343   -0.460369   -0.046615
     15          6           0        1.678613    0.280105    0.340886
     16          1           0        0.345781    2.611496    1.366023
     17          1           0        0.530486    3.546445   -0.126908
     18          1           0       -1.717445    2.322680    0.038336
     19          1           0       -0.787148    1.844739   -1.387182
     20          1           0       -1.000762    0.297560    1.239257
     21          1           0       -4.307181   -0.545699   -1.671496
     22          1           0       -3.963916   -2.008040   -0.746911
     23          1           0       -5.197217   -0.856640   -0.151164
     24          1           0        0.491804   -0.382701   -1.341610
     25          1           0        0.241979   -1.944466    1.278009
     26          1           0       -0.491096   -2.384009   -0.263588
     27          1           0        1.620891   -3.674820    0.152963
     28          1           0        1.745830   -2.681005   -1.294337
     29          1           0        3.823026   -2.451422    0.036790
     30          1           0        2.898526   -2.007253    1.466753
     31          1           0        3.104812   -0.381183   -1.132920
     32          1           0        3.826405    0.043487    0.405156
     33          1           0        1.572650    0.255362    1.440486
 ---------------------------------------------------------------------

 SCF Done:  E(RB3LYP) =  -693.825193833     A.U. after   14 cycles

 The electronic state is 1-A.
 Alpha  occ. eigenvalues --  -19.19269 -19.13942 -19.13902 -10.32103 -10.27255
 Alpha  occ. eigenvalues --  -10.25080 -10.20336 -10.20061 -10.20021 -10.19804
 Alpha  occ. eigenvalues --  -10.19699 -10.18652 -10.18425 -10.18269 -10.18115
 Alpha  occ. eigenvalues --   -1.10181  -1.03805  -1.01691  -0.85580  -0.81011
 Alpha  occ. eigenvalues --   -0.77025  -0.74956  -0.74771  -0.70678  -0.63495
 Alpha  occ. eigenvalues --   -0.62632  -0.60520  -0.57323  -0.55542  -0.53399
 Alpha  occ. eigenvalues --   -0.49580  -0.48520  -0.47589  -0.47286  -0.45491
 Alpha  occ. eigenvalues --   -0.45281  -0.44764  -0.44505  -0.42246  -0.41588
 Alpha  occ. eigenvalues --   -0.41380  -0.40142  -0.39788  -0.38998  -0.37275
 Alpha  occ. eigenvalues --   -0.37067  -0.35823  -0.35485  -0.35240  -0.34364
 Alpha  occ. eigenvalues --   -0.33593  -0.32500  -0.31796  -0.30556  -0.29433
 Alpha  occ. eigenvalues --   -0.27451  -0.23983
 Alpha virt. eigenvalues --   -0.01727   0.00822   0.08338   0.08886   0.09103
 Alpha virt. eigenvalues --    0.10335   0.12417   0.13203   0.13603   0.13918
 Alpha virt. eigenvalues --    0.14825   0.15413   0.15706   0.16340   0.16646

 Mulliken charges:
               1
     1  O   -0.447540
     2  C    0.450049
     3  C   -0.354065
     4  C   -0.295850
     5  C    0.129081
     6  O   -0.476438
     7  C    0.607800
     8  O   -0.468668
     9  C   -0.526050
    10  C   -0.110206
    11  C   -0.265362
    12  C   -0.262751
    13  C   -0.266085
    14  C   -0.253565
    15  C   -0.189022
    16  H    0.162177
    17  H    0.169025
    18  H    0.169212
    19  H    0.151732
    20  H    0.154372
    21  H    0.182817
    22  H    0.181983
    23  H    0.184054
    24  H    0.134508
    25  H    0.127757
    26  H    0.147011
    27  H    0.134648
    28  H    0.132587
    29  H    0.136502
    30  H    0.128149
    31  H    0.142883
    32  H    0.149734
    33  H    0.139521
 Sum of Mulliken charges =  -0.00000

 Dipole moment (field-independent basis, Debye):
    X=             -1.2724    Y=             -2.0985    Z=             -0.4121  Tot=              2.4885
 Quadrupole moment (field-independent basis, Debye-Ang):
   XX=            -96.9397   YY=            -90.8870   ZZ=            -90.8789
   XY=             -3.5124   XZ=             10.0194   YZ=              1.5906

  Exact polarizability: 148.236   1.844 128.851  -2.388   1.874 103.729
 Approx polarizability: 187.358   6.742 170.809 -12.969   4.878 178.579

                      1                      2                      3
                      A                      A                      A
 Frequencies --     44.3954                50.8821                62.0737
 Red. masses --      2.2765                 3.1231                 2.5270
 Frc consts  --      0.0026                 0.0048                 0.0057
 IR Inten    --      3.2903                 0.6630                 1.7590

                      4                      5                      6
                      A                      A                      A
 Frequencies --     78.6670                89.3501               131.9352
 Red. masses --      3.3814                 2.2998                 3.2093
 Frc consts  --      0.0123                 0.0108                 0.0329
 IR Inten    --      0.7931                 1.6220                 2.1192

                      7                      8                      9
                      A                      A                      A
 Frequencies --    161.3176               215.6539               228.4718
 Red. masses --      2.8210                 5.5170                 2.7257
 Frc consts  --      0.0433                 0.1512                 0.0838
 IR Inten    --      0.6367                 0.6319                 3.7960

                     10                     11                     12
                      A                      A                      A
 Frequencies --    269.2480               305.8142               311.2937
 Red. masses --      3.1340                 2.3789                 2.5768
 Frc consts  --      0.1339                 0.1311                 0.1471
 IR Inten    --      1.9784                 4.0662                 1.3755

                     13                     14                     15
                      A                      A                      A
 Frequencies --    333.6083               377.7520               416.5536
 Red. masses --      3.8551                 3.4552                 3.0501
 Frc consts  --      0.2528                 0.2905                 0.3118
 IR Inten    --      4.8178                 0.7830                 2.9988

                     16                     17                     18
                      A                      A                      A
 Frequencies --    455.0029               455.4090               495.2440
 Red. masses --      2.8743                 3.3475                 2.4809
 Frc consts  --      0.3506                 0.4090                 0.3585
 IR Inten    --      6.1191                 0.2774                 1.0557

                     19                     20                     21
                      A                      A                      A
 Frequencies --    512.8780               539.2706               579.4156
 Red. masses --      2.8031                 2.2228                 3.4882
 Frc consts  --      0.4344                 0.3809                 0.6900
 IR Inten    --      0.5212                 5.8915                 8.1349

                     22                     23                     24
                      A                      A                      A
 Frequencies --    606.0548               662.4844               694.0656
 Red. masses --      2.8864                 4.2376                 3.8352
 Frc consts  --      0.6246                 1.0958                 1.0885
 IR Inten    --      4.0777                 4.4299                 2.5759

                     25                     26                     27
                      A                      A                      A
 Frequencies --    792.2845               825.4869               847.4107
 Red. masses --      1.9637                 2.0309                 2.5662
 Frc consts  --      0.7262                 0.8154                 1.0857
 IR Inten    --      0.5696                 2.1164                 9.2890

                     28                     29                     30
                      A                      A                      A
 Frequencies --    859.6494               870.2099               898.6854
 Red. masses --      1.7174                 1.8622                 3.1090
 Frc consts  --      0.7478                 0.8309                 1.4794
 IR Inten    --      1.4395                 1.6086                 5.2729

                     31                     32                     33
                      A                      A                      A
 Frequencies --    922.1052               940.8244               968.5132
 Red. masses --      1.5719                 3.3758                 2.6414
 Frc consts  --      0.7875                 1.7605                 1.4598
 IR Inten    --      5.9754                 8.7180                 7.3219

                     34                     35                     36
                      A                      A                      A
 Frequencies --    990.6105              1003.3419              1021.2174
 Red. masses --      2.2705                 1.7896                 2.0021
 Frc consts  --      1.3127                 1.0615                 1.2302
 IR Inten    --      5.4969                 5.4377                 1.1544

                     37                     38                     39
                      A                      A                      A
 Frequencies --   1048.4145              1059.8277              1073.8873
 Red. masses --      1.8678                 2.2092                 1.6436
 Frc consts  --      1.2096                 1.4620                 1.1168
 IR Inten    --      8.6332               105.5525                35.9679

                     40                     41                     42
                      A                      A                      A
 Frequencies --   1076.2400              1077.1442              1100.2009
 Red. masses --      1.6643                 1.6201                 2.6810
 Frc consts  --      1.1358                 1.1075                 1.9120
 IR Inten    --     14.8411                 4.9396                 5.7906

                     43                     44                     45
                      A                      A                      A
 Frequencies --   1121.3469              1141.0786              1160.6512
 Red. masses --      2.1745                 2.1630                 2.0888
 Frc consts  --      1.6110                 1.6594                 1.6579
 IR Inten    --     21.1480                 8.8192                 7.0430

                     46                     47                     48
                      A                      A                      A
 Frequencies --   1170.5825              1213.8914              1238.0409
 Red. masses --      1.8632                 1.8650                 1.3970
 Frc consts  --      1.5042                 1.6192                 1.2616
 IR Inten    --      5.6737                19.4045                 5.9510

                     49                     50                     51
                      A                      A                      A
 Frequencies --   1255.8140              1276.7458              1280.9114
 Red. masses --      1.3613                 2.7975                 1.6240
 Frc consts  --      1.2649                 2.6867                 1.5699
 IR Inten    --     30.0811               350.7403               107.8552

                     52                     53                     54
                      A                      A                      A
 Frequencies --   1285.6427              1320.0550              1328.9376
 Red. masses --      1.4217                 1.2605                 1.3436
 Frc consts  --      1.3845                 1.2941                 1.3981
 IR Inten    --      3.2392                 3.6391                 4.3680

                     55                     56                     57
                      A                      A                      A
 Frequencies --   1340.6888              1351.4505              1365.8328
 Red. masses --      1.3836                 1.2713                 1.3300
 Frc consts  --      1.4653                 1.3680                 1.4618
 IR Inten    --     10.6959                 1.3522                 6.4000

                     58                     59                     60
                      A                      A                      A
 Frequencies --   1376.7177              1386.2975              1391.0214
 Red. masses --      1.4129                 1.3876                 1.3834
 Frc consts  --      1.5778                 1.5712                 1.5771
 IR Inten    --      7.7341                 3.7001                 1.0290

                     61                     62                     63
                      A                      A                      A
 Frequencies --   1398.1724              1406.1147              1412.9996
 Red. masses --      1.4344                 1.5236                 1.3661
 Frc consts  --      1.6521                 1.7748                 1.6071
 IR Inten    --      0.8689                 7.2605                10.4322

                     64                     65                     66
                      A                      A                      A
 Frequencies --   1419.1990              1427.4948              1498.9449
 Red. masses --      1.7150                 1.4275                 1.0887
 Frc consts  --      2.0351                 1.7138                 1.4412
 IR Inten    --      1.3311                49.5158                 7.3642

                     67                     68                     69
                      A                      A                      A
 Frequencies --   1500.1130              1505.3304              1512.3784
 Red. masses --      1.0516                 1.0465                 1.0895
 Frc consts  --      1.3943                 1.3972                 1.4682
 IR Inten    --     11.7470                 8.7607                 2.8489

                     70                     71                     72
                      A                      A                      A
 Frequencies --   1516.6880              1519.3987              1528.5595
 Red. masses --      1.0927                 1.0813                 1.0918
 Frc consts  --      1.4809                 1.4708                 1.5031
 IR Inten    --      1.5315                 8.0777                 4.2733

                     73                     74                     75
                      A                      A                      A
 Frequencies --   1532.2478              1812.7842              1826.6125
 Red. masses --      1.0994                11.5935                11.0118
 Frc consts  --      1.5208                22.4469                21.6472
 IR Inten    --      0.1754               186.3274               201.1627

                     76                     77                     78
                      A                      A                      A
 Frequencies --   2971.4387              3005.8782              3018.5839
 Red. masses --      1.0798                 1.0799                 1.0732
 Frc consts  --      5.6172                 5.7490                 5.7613
 IR Inten    --      8.1558                 3.5593                18.3627

                     79                     80                     81
                      A                      A                      A
 Frequencies --   3021.1594              3029.5763              3030.5608
 Red. masses --      1.0694                 1.0625                 1.0694
 Frc consts  --      5.7509                 5.7457                 5.7867
 IR Inten    --     18.5629                39.7428                14.7004

                     82                     83                     84
                      A                      A                      A
 Frequencies --   3050.2008              3052.9073              3071.3027
 Red. masses --      1.0667                 1.0659                 1.0372
 Frc consts  --      5.8471                 5.8533                 5.7643
 IR Inten    --     13.3252                14.7236                 1.8755

                     85                     86                     87
                      A                      A                      A
 Frequencies --   3074.4314              3076.1293              3078.0420
 Red. masses --      1.0937                 1.0838                 1.0977
 Frc consts  --      6.0909                 6.0426                 6.1276
 IR Inten    --     53.2156                25.0519                67.2792

                     88                     89                     90
                      A                      A                      A
 Frequencies --   3095.0253              3100.8484              3113.6896
 Red. masses --      1.0940                 1.0994                 1.0999
 Frc consts  --      6.1745                 6.2285                 6.2830
 IR Inten    --     34.3042                32.3951                17.1481

                     91                     92                     93
                      A                      A                      A
 Frequencies --   3124.3855              3133.4309              3183.2239
 Red. masses --      1.0952                 1.1006                 1.1033
 Frc consts  --      6.2990                 6.3668                 6.5867
 IR Inten    --     17.2791                 5.8393                 8.2834

 - Thermochemistry -
 -------------------
 Temperature   298.150 Kelvin.  Pressure   1.00000 Atm.
 Atom     1 has atomic number  8 and mass  15.99491

 Molecular mass:   210.12559 amu.
 Principal axes and moments of inertia in atomic units:
                           1         2         3
     Eigenvalues --  2024.609634331.159515913.17196
           X            0.99968  -0.02195   0.01228
           Y            0.02188   0.99974   0.00617
           Z           -0.01241  -0.00589   0.99991
 This molecule is an asymmetric top.
 Rotational symmetry number  1.
 Warning -- assumption of classical behavior for rotation
           may cause significant error
 Rotational temperatures (Kelvin)      0.04278     0.02000     0.01465
 Rotational constants (GHZ):           0.89140     0.41669     0.30521
 Zero-point vibrational energy     756676.6 (Joules/Mol)
                                  180.85006 (Kcal/Mol)
 Warning -- explicit consideration of  22 degrees of freedom as
           vibrations may cause significant error
 Vibrational temperatures:     63.88    73.21    89.31   113.18   128.55
          (Kelvin)            189.83   232.10   310.28   328.72   387.39
                              440.00   447.88   479.99   543.50   599.33
                              654.65   655.23   712.55   737.92   775.89
                              833.65   871.98   953.17   998.61  1139.92
                             1187.69  1219.23  1236.84  1252.04  1293.01
                             1326.70  1353.64  1393.47  1425.27  1443.59
                             1469.30  1508.43  1524.86  1545.08  1548.47
                             1549.77  1582.94  1613.37  1641.76  1669.92
                             1684.21  1746.52  1781.26  1806.84  1836.95
                             1842.95  1849.75  1899.26  1912.04  1928.95
                             1944.44  1965.13  1980.79  1994.57  2001.37
                             2011.66  2023.09  2032.99  2041.91  2053.85
                             2156.65  2158.33  2165.83  2175.98  2182.18
                             2186.08  2199.26  2204.56  2608.19  2628.09
                             4275.24  4324.79  4343.07  4346.77  4358.88
                             4360.30  4388.56  4392.45  4418.92  4423.42
                             4425.86  4428.62  4453.05  4461.43  4479.90
                             4495.29  4508.31  4579.95

 Zero-point correction=                           0.288203 (Hartree/Particle)
 Thermal correction to Energy=                    0.302541
 Thermal correction to Enthalpy=                  0.303485
 Thermal correction to Gibbs Free Energy=         0.246090
 Sum of electronic and zero-point Energies=           -693.536991
 Sum of electronic and thermal Energies=              -693.522653
 Sum of electronic and thermal Enthalpies=            -693.521709
 Sum of electronic and thermal Free Energies=         -693.579104

                     E (Thermal)             CV                S
                      KCal/Mol        Cal/Mol-Kelvin    Cal/Mol-Kelvin
 Total                  189.847             54.842            120.798
 Electronic               0.000              0.000              0.000
 Translational            0.889              2.981             41.931
 Rotational               0.889              2.981             32.317
 Vibrational            188.070             48.880             46.550
 Vibration     1          0.595              1.980              5.053
 Vibration     2          0.595              1.977              4.783
 Vibration     3          0.597              1.972              4.390
 Vibration     4          0.600              1.964              3.924
 Vibration     5          0.602              1.957              3.674
 Vibration     6          0.612              1.921              2.918
 Vibration     7          0.622              1.890              2.534
 Vibration     8          0.645              1.817              1.995
 Vibration     9          0.651              1.798              1.891
 Vibration    10          0.674              1.730              1.601
 Vibration    11          0.696              1.663              1.385
 Vibration    12          0.700              1.652              1.355
 Vibration    13          0.715              1.608              1.243
 Vibration    14          0.748              1.518              1.048
 Vibration    15          0.780              1.434              0.904
 Vibration    16          0.813              1.350              0.781
 Vibration    17          0.814              1.349              0.780
 Vibration    18          0.851              1.261              0.670
 Vibration    19          0.868              1.221              0.627
 Vibration    20          0.894              1.163              0.567
 Vibration    21          0.936              1.076              0.486
 Vibration    22          0.965              1.019              0.439

 Normal termination of Gaussian 16 at Sat Feb 24 00:32:40 2024.
