 Gaussian 16, Revision A.03,
 Gaussian 16:  EM64M-G16RevA.03 25-Dec-2016

 ---------------------
 # freq b3lyp/6-31g(d)
 ---------------------

 ---------
 good luck
 ---------
 Symbolic Z-matrix:
 Charge =  0 Multiplicity = 1

                         Standard orientation:
 ---------------------------------------------------------------------
 Center     Atomic      Atomic             Coordinates (Angstroms)
 Number     Number       Type             X           Y           Z
 ---------------------------------------------------------------------
      1          8           0       -3.090664   -0.751807   -0.453738
      2          6           0       -2.042352   -0.345944    0.010422
      3          6           0       -1.826201    1.130786    0.347325
      4          6           0       -0.468160    1.681018   -0.145533
      5          6           0        0.666082    0.749363    0.282236
      6          6           0        2.092233    1.060090   -0.201066
      7          6           0        2.851385   -0.297445   -0.088685
      8          6           0        1.757837   -1.389991    0.116924
      9          6           0        0.439234   -0.682209   -0.233276
     10          6           0       -0.867642   -1.280833    0.303059
     11          1           0       -2.671689    1.697111   -0.053731
     12          1           0       -1.864784    1.217964    1.444625
     13          1           0       -0.479819    1.760709   -1.241926
     14          1           0       -0.320835    2.697038    0.241595
     15          1           0        0.677159    0.704266    1.385051
     16          1           0        2.570059    1.860859    0.373519
     17          1           0        2.059275    1.393494   -1.246757
     18          1           0        3.441161   -0.489647   -0.990992
     19          1           0        3.557136   -0.291526    0.748547
     20          1           0        1.934226   -2.285912   -0.487777
     21          1           0        1.731532   -1.712635    1.166336
     22          1           0        0.361000   -0.624299   -1.331751
     23          1           0       -0.788424   -1.398132    1.395799
     24          1           0       -1.095174   -2.263846   -0.121079
 ---------------------------------------------------------------------

 SCF Done:  E(RB3LYP) =  -426.620173389     A.U. after   13 cycles

 The electronic state is 1-A.
 Alpha  occ. eigenvalues --  -19.13185 -10.26874 -10.19266 -10.19223 -10.19060
 Alpha  occ. eigenvalues --  -10.18971 -10.18857 -10.18435 -10.18397 -10.18361
 Alpha  occ. eigenvalues --   -1.03080  -0.85669  -0.78791  -0.75692  -0.70744
 Alpha  occ. eigenvalues --   -0.68212  -0.62236  -0.56990  -0.56785  -0.52934
 Alpha  occ. eigenvalues --   -0.47280  -0.46994  -0.45703  -0.44475  -0.43485
 Alpha  occ. eigenvalues --   -0.41965  -0.40813  -0.39127  -0.38884  -0.36059
 Alpha  occ. eigenvalues --   -0.34654  -0.34040  -0.33512  -0.32394  -0.32093
 Alpha  occ. eigenvalues --   -0.31798  -0.30816  -0.23351
 Alpha virt. eigenvalues --   -0.01194   0.08390   0.08823   0.10492   0.11224
 Alpha virt. eigenvalues --    0.12830   0.14496   0.15654   0.16025   0.16220
 Alpha virt. eigenvalues --    0.17082   0.17406   0.18763   0.19018   0.19723

 Mulliken charges:
               1
     1  O   -0.446625
     2  C    0.450092
     3  C   -0.350209
     4  C   -0.272130
     5  C   -0.084427
     6  C   -0.274943
     7  C   -0.279488
     8  C   -0.272723
     9  C   -0.097638
    10  C   -0.345423
    11  H    0.163900
    12  H    0.154522
    13  H    0.139724
    14  H    0.140083
    15  H    0.115859
    16  H    0.135899
    17  H    0.134306
    18  H    0.140705
    19  H    0.139661
    20  H    0.138890
    21  H    0.132409
    22  H    0.128226
    23  H    0.148506
    24  H    0.160824
 Sum of Mulliken charges =  -0.00000

 Dipole moment (field-independent basis, Debye):
    X=              2.7874    Y=              1.0259    Z=              1.0159  Tot=              3.1391
 Quadrupole moment (field-independent basis, Debye-Ang):
   XX=            -72.7278   YY=            -60.8425   ZZ=            -59.8621
   XY=             -4.0543   XZ=             -3.1549   YZ=             -0.4183

  Exact polarizability: 104.837   0.188  90.063   2.123   0.975  75.447
 Approx polarizability: 135.396   4.721 123.099   7.820   3.305 122.948

                      1                      2                      3
                      A                      A                      A
 Frequencies --     66.6819                84.4097               147.2765
 Red. masses --      2.5772                 2.5280                 2.3614
 Frc consts  --      0.0068                 0.0106                 0.0302
 IR Inten    --      1.5760                 1.8142                 0.7835

                      4                      5                      6
                      A                      A                      A
 Frequencies --    210.5448               289.1324               327.1142
 Red. masses --      2.2385                 3.1819                 2.3452
 Frc consts  --      0.0585                 0.1567                 0.1479
 IR Inten    --      0.2798                 0.4721                 0.1477

                      7                      8                      9
                      A                      A                      A
 Frequencies --    379.6960               424.4815               480.3954
 Red. masses --      3.2830                 3.2953                 2.5089
 Frc consts  --      0.2789                 0.3498                 0.3411
 IR Inten    --      1.0022                 4.1248                 2.9729

                     10                     11                     12
                      A                      A                      A
 Frequencies --    508.0883               540.6592               618.3080
 Red. masses --      2.4322                 3.3506                 2.7684
 Frc consts  --      0.3699                 0.5771                 0.6236
 IR Inten    --      2.8157                 5.2242                 0.2351

                     13                     14                     15
                      A                      A                      A
 Frequencies --    694.1253               755.8245               779.7711
 Red. masses --      3.2062                 2.2052                 1.2647
 Frc consts  --      0.9102                 0.7422                 0.4531
 IR Inten    --      1.3455                 2.8760                 1.4235

                     16                     17                     18
                      A                      A                      A
 Frequencies --    806.1172               835.7549               903.5528
 Red. masses --      2.4759                 2.1061                 2.2076
 Frc consts  --      0.9479                 0.8667                 1.0619
 IR Inten    --      2.4174                 1.6203                 1.4188

                     19                     20                     21
                      A                      A                      A
 Frequencies --    909.4979               924.3622               962.8748
 Red. masses --      1.8565                 1.6570                 2.4267
 Frc consts  --      0.9048                 0.8342                 1.3256
 IR Inten    --      0.5296                 0.0618                 4.8669

                     22                     23                     24
                      A                      A                      A
 Frequencies --    989.7609              1012.9264              1039.8920
 Red. masses --      1.4712                 2.7292                 1.5160
 Frc consts  --      0.8492                 1.6498                 0.9659
 IR Inten    --      1.0327                 1.7101                 1.4561

                     25                     26                     27
                      A                      A                      A
 Frequencies --   1057.8038              1087.7520              1101.0423
 Red. masses --      1.7365                 2.2700                 2.1083
 Frc consts  --      1.1448                 1.5825                 1.5059
 IR Inten    --      1.7696                 4.8053                 5.3663

                     28                     29                     30
                      A                      A                      A
 Frequencies --   1119.0293              1146.5156              1180.4864
 Red. masses --      2.5500                 1.7519                 1.5380
 Frc consts  --      1.8814                 1.3568                 1.2628
 IR Inten    --      3.7108                 0.7804                 3.5015

                     31                     32                     33
                      A                      A                      A
 Frequencies --   1206.9677              1228.8090              1261.9137
 Red. masses --      1.7389                 1.4896                 1.4686
 Frc consts  --      1.4925                 1.3252                 1.3779
 IR Inten    --     23.3111                10.3331                 8.6986

                     34                     35                     36
                      A                      A                      A
 Frequencies --   1266.5462              1281.4028              1297.5913
 Red. masses --      1.3329                 1.4011                 1.2810
 Frc consts  --      1.2598                 1.3555                 1.2708
 IR Inten    --      6.9525                 0.4025                 0.4391

                     37                     38                     39
                      A                      A                      A
 Frequencies --   1310.9739              1328.8940              1341.2727
 Red. masses --      1.3710                 1.3912                 1.3239
 Frc consts  --      1.3882                 1.4475                 1.4033
 IR Inten    --      2.6194                 1.3616                 3.5479

                     40                     41                     42
                      A                      A                      A
 Frequencies --   1343.1859              1359.2354              1362.9104
 Red. masses --      1.3580                 1.2702                 1.3771
 Frc consts  --      1.4435                 1.3827                 1.5071
 IR Inten    --      2.7072                 5.7765                 6.4479

                     43                     44                     45
                      A                      A                      A
 Frequencies --   1388.0670              1410.7411              1417.4414
 Red. masses --      1.4316                 1.5224                 1.6192
 Frc consts  --      1.6251                 1.7852                 1.9168
 IR Inten    --      0.0846                 4.6378                 1.6051

                     46                     47                     48
                      A                      A                      A
 Frequencies --   1490.8543              1499.1812              1517.9508
 Red. masses --      1.0944                 1.0860                 1.0796
 Frc consts  --      1.4332                 1.4381                 1.4656
 IR Inten    --      5.0496                 7.9682                 0.1980

                     49                     50                     51
                      A                      A                      A
 Frequencies --   1525.1167              1528.2588              1545.5375
 Red. masses --      1.0909                 1.0883                 1.1014
 Frc consts  --      1.4950                 1.4976                 1.5501
 IR Inten    --      0.9399                 5.2380                 0.4463

                     52                     53                     54
                      A                      A                      A
 Frequencies --   1815.6736              2975.5976              2991.5599
 Red. masses --     11.1382                 1.0804                 1.0826
 Frc consts  --     21.6342                 5.6363                 5.7086
 IR Inten    --    199.2926                 4.8960                17.4976

                     55                     56                     57
                      A                      A                      A
 Frequencies --   3014.2222              3020.1739              3033.3356
 Red. masses --      1.0696                 1.0704                 1.0621
 Frc consts  --      5.7254                 5.7523                 5.7580
 IR Inten    --      4.2325                18.2447                22.5886

                     58                     59                     60
                      A                      A                      A
 Frequencies --   3042.9177              3044.9018              3069.3960
 Red. masses --      1.0664                 1.0657                 1.0634
 Frc consts  --      5.8177                 5.8216                 5.9028
 IR Inten    --     25.5461                72.5633                42.0374

                     61                     62                     63
                      A                      A                      A
 Frequencies --   3076.0991              3088.0311              3097.7589
 Red. masses --      1.1016                 1.0996                 1.0980
 Frc consts  --      6.1417                 6.1781                 6.2081
 IR Inten    --     32.5750                25.6972                17.3447

                     64                     65                     66
                      A                      A                      A
 Frequencies --   3110.3172              3114.2311              3118.6255
 Red. masses --      1.0945                 1.1048                 1.0935
 Frc consts  --      6.2383                 6.3129                 6.2662
 IR Inten    --     12.4156                78.4976                21.4490

 - Thermochemistry -
 -------------------
 Temperature   298.150 Kelvin.  Pressure   1.00000 Atm.
 Atom     1 has atomic number  8 and mass  15.99491

 Molecular mass:   138.10447 amu.
 Principal axes and moments of inertia in atomic units:
                           1         2         3
     Eigenvalues --   674.477621883.667922396.09346
           X            0.99976  -0.02055  -0.00755
           Y            0.02049   0.99975  -0.00912
           Z            0.00773   0.00896   0.99993
 This molecule is an asymmetric top.
 Rotational symmetry number  1.
 Warning -- assumption of classical behavior for rotation
           may cause significant error
 Rotational temperatures (Kelvin)      0.12842     0.04598     0.03615
 Rotational constants (GHZ):           2.67576     0.95810     0.75320
 Zero-point vibrational energy     567685.3 (Joules/Mol)
                                  135.68004 (Kcal/Mol)
 Warning -- explicit consideration of  12 degrees of freedom as
           vibrations may cause significant error
 Vibrational temperatures:     95.94   121.45   211.90   302.93   416.00
          (Kelvin)            470.64   546.30   610.73   691.18   731.03
                              777.89   889.61   998.69  1087.46  1121.92
                             1159.82  1202.46  1300.01  1308.56  1329.95
                             1385.36  1424.05  1457.38  1496.17  1521.94
                             1565.03  1584.15  1610.03  1649.58  1698.46
                             1736.56  1767.98  1815.61  1822.28  1843.65
                             1866.94  1886.20  1911.98  1929.79  1932.54
                             1955.64  1960.92  1997.12  2029.74  2039.38
                             2145.01  2156.99  2183.99  2194.30  2198.82
                             2223.68  2612.35  4281.22  4304.19  4336.79
                             4345.36  4364.29  4378.08  4380.93  4416.18
                             4425.82  4442.99  4456.98  4475.05  4480.68
                             4487.01

 Zero-point correction=                           0.216220 (Hartree/Particle)
 Thermal correction to Energy=                    0.225120
 Thermal correction to Enthalpy=                  0.226064
 Thermal correction to Gibbs Free Energy=         0.182013
 Sum of electronic and zero-point Energies=           -426.403953
 Sum of electronic and thermal Energies=              -426.395053
 Sum of electronic and thermal Enthalpies=            -426.394109
 Sum of electronic and thermal Free Energies=         -426.438161

                     E (Thermal)             CV                S
                      KCal/Mol        Cal/Mol-Kelvin    Cal/Mol-Kelvin
 Total                  141.265             35.166             92.714
 Electronic               0.000              0.000              0.000
 Translational            0.889              2.981             40.680
 Rotational               0.889              2.981             29.500
 Vibrational            139.487             29.204             22.534
 Vibration     1          0.598              1.970              4.249
 Vibration     2          0.601              1.960              3.786
 Vibration     3          0.617              1.906              2.707
 Vibration     4          0.643              1.825              2.039
 Vibration     5          0.686              1.694              1.479
 Vibration     6          0.711              1.621              1.274
 Vibration     7          0.750              1.513              1.040
 Vibration     8          0.786              1.417              0.877
 Vibration     9          0.837              1.294              0.709
 Vibration    10          0.863              1.232              0.638
 Vibration    11          0.896              1.160              0.564
 Vibration    12          0.978              0.993              0.419

 Normal termination of Gaussian 16 at Wed Feb 21 19:30:36 2024.
