 Gaussian 16, Revision A.03,
 Gaussian 16:  EM64M-G16RevA.03 25-Dec-2016

 ---------------------
 # freq b3lyp/6-31g(d)
 ---------------------

 ---------
 good luck
 ---------
 Symbolic Z-matrix:
 Charge =  0 Multiplicity = 1

                         Standard orientation:
 ---------------------------------------------------------------------
 Center     Atomic      Atomic             Coordinates (Angstroms)
 Number     Number       Type             X           Y           Z
 ---------------------------------------------------------------------
      1          8           0        2.855829    0.000000   -0.895474
      2          6           0        1.759152    0.000000   -0.391353
      3          6           0        0.834564   -1.158426    0.020907
      4          6           0       -0.399159   -0.793627   -0.852626
      5          6           0       -0.399159    0.793627   -0.852625
      6          6           0       -1.804764    1.224839   -0.368599
      7          6           0       -2.417786   -0.000000    0.344050
      8          6           0       -1.804765   -1.224839   -0.368600
      9          6           0        0.834564    1.158426    0.020909
     10          6           0        0.610342    0.786510    1.505976
     11          6           0        0.610342   -0.786512    1.505975
     12          1           0        1.235931   -2.158813   -0.149594
     13          1           0       -0.216838   -1.178520   -1.861903
     14          1           0       -0.216838    1.178522   -1.861901
     15          1           0       -2.414706    1.482572   -1.243091
     16          1           0       -1.780677    2.116065    0.268942
     17          1           0       -2.150501   -0.000001    1.406367
     18          1           0       -3.512503   -0.000000    0.296455
     19          1           0       -2.414707   -1.482570   -1.243092
     20          1           0       -1.780677   -2.116064    0.268939
     21          1           0        1.235931    2.158813   -0.149592
     22          1           0        1.430273    1.176155    2.118515
     23          1           0       -0.315793    1.208653    1.905573
     24          1           0       -0.315793   -1.208655    1.905571
     25          1           0        1.430273   -1.176157    2.118514
 ---------------------------------------------------------------------

 SCF Done:  E(RB3LYP) =  -464.702440888     A.U. after   13 cycles

 The electronic state is 1-A.
 Alpha  occ. eigenvalues --  -19.13920 -10.26557 -10.19415 -10.19400 -10.19196
 Alpha  occ. eigenvalues --  -10.19180 -10.19083 -10.19080 -10.18480 -10.18477
 Alpha  occ. eigenvalues --  -10.18419  -1.03726  -0.87925  -0.80624  -0.74794
 Alpha  occ. eigenvalues --   -0.73174  -0.68573  -0.65419  -0.59616  -0.56915
 Alpha  occ. eigenvalues --   -0.53065  -0.52141  -0.50805  -0.47820  -0.46279
 Alpha  occ. eigenvalues --   -0.43673  -0.43452  -0.41633  -0.39351  -0.39099
 Alpha  occ. eigenvalues --   -0.37367  -0.36329  -0.35884  -0.34464  -0.34244
 Alpha  occ. eigenvalues --   -0.33672  -0.33020  -0.32039  -0.30996  -0.29661
 Alpha  occ. eigenvalues --   -0.22713
 Alpha virt. eigenvalues --   -0.00631   0.06673   0.08197   0.11296   0.12300
 Alpha virt. eigenvalues --    0.12490   0.14327   0.14560   0.15379   0.16069
 Alpha virt. eigenvalues --    0.17726   0.17781   0.18702   0.18974   0.19858

 Mulliken charges:
               1
     1  O   -0.442704
     2  C    0.423523
     3  C   -0.165205
     4  C   -0.111908
     5  C   -0.111908
     6  C   -0.278416
     7  C   -0.281935
     8  C   -0.278416
     9  C   -0.165205
    10  C   -0.291154
    11  C   -0.291154
    12  H    0.137311
    13  H    0.139313
    14  H    0.139313
    15  H    0.139141
    16  H    0.141017
    17  H    0.141031
    18  H    0.138888
    19  H    0.139141
    20  H    0.141017
    21  H    0.137311
    22  H    0.151653
    23  H    0.148845
    24  H    0.148845
    25  H    0.151653
 Sum of Mulliken charges =  -0.00000

 Dipole moment (field-independent basis, Debye):
    X=             -2.8630    Y=             -0.0000    Z=              1.0901  Tot=              3.0635
 Quadrupole moment (field-independent basis, Debye-Ang):
   XX=            -75.8707   YY=            -64.9658   ZZ=            -65.6091
   XY=             -0.0000   XZ=              4.8637   YZ=             -0.0000

  Exact polarizability: 106.189   0.000  90.359  -0.452   0.000  87.789
 Approx polarizability: 150.970   0.000 131.341  -6.320   0.000 132.836

                      1                      2                      3
                      A                      A                      A
 Frequencies --    123.6706               133.0310               217.0207
 Red. masses --      6.9656                 2.8625                 2.2897
 Frc consts  --      0.0628                 0.0298                 0.0635
 IR Inten    --      2.8398                 0.4772                 0.0689

                      4                      5                      6
                      A                      A                      A
 Frequencies --    261.3772               268.3610               305.5535
 Red. masses --      1.7743                 2.3431                 3.0453
 Frc consts  --      0.0714                 0.0994                 0.1675
 IR Inten    --      0.0270                 0.3556                 1.0165

                      7                      8                      9
                      A                      A                      A
 Frequencies --    417.7162               484.3833               509.0858
 Red. masses --      2.8579                 3.6348                 3.5674
 Frc consts  --      0.2938                 0.5025                 0.5447
 IR Inten    --      0.6475                 0.6019                 6.9252

                     10                     11                     12
                      A                      A                      A
 Frequencies --    597.6930               635.3815               650.3383
 Red. masses --      2.3849                 3.3814                 5.5462
 Frc consts  --      0.5020                 0.8043                 1.3821
 IR Inten    --      0.9284                 0.6936                 2.2554

                     13                     14                     15
                      A                      A                      A
 Frequencies --    723.2860               761.9300               778.8635
 Red. masses --      3.5317                 1.9658                 2.5363
 Frc consts  --      1.0886                 0.6724                 0.9065
 IR Inten    --      0.9485                 0.3139                 4.2798

                     16                     17                     18
                      A                      A                      A
 Frequencies --    795.7176               821.7987               865.0821
 Red. masses --      3.5204                 2.2183                 1.9702
 Frc consts  --      1.3133                 0.8827                 0.8687
 IR Inten    --      7.2269                 0.2308                 2.9706

                     19                     20                     21
                      A                      A                      A
 Frequencies --    879.3044               882.7504               895.5048
 Red. masses --      2.4100                 3.4289                 1.7551
 Frc consts  --      1.0979                 1.5743                 0.8292
 IR Inten    --      0.0032                 3.7173                 2.5650

                     22                     23                     24
                      A                      A                      A
 Frequencies --    910.4095               960.7328               989.4662
 Red. masses --      2.7797                 1.9993                 2.1469
 Frc consts  --      1.3574                 1.0873                 1.2384
 IR Inten    --      2.7152                 0.0072                 0.2892

                     25                     26                     27
                      A                      A                      A
 Frequencies --   1006.3174              1024.7608              1047.5141
 Red. masses --      2.1109                 2.2515                 1.8554
 Frc consts  --      1.2595                 1.3931                 1.1995
 IR Inten    --      1.3834                 0.8002                 1.2810

                     28                     29                     30
                      A                      A                      A
 Frequencies --   1067.2547              1090.0621              1113.2309
 Red. masses --      2.4268                 1.7170                 1.6636
 Frc consts  --      1.6286                 1.2020                 1.2147
 IR Inten    --      0.0659                 1.3712                 0.7221

                     31                     32                     33
                      A                      A                      A
 Frequencies --   1136.5701              1139.3617              1174.2033
 Red. masses --      1.1435                 2.8101                 1.2983
 Frc consts  --      0.8703                 2.1493                 1.0546
 IR Inten    --      0.2416                26.3842                 7.6357

                     34                     35                     36
                      A                      A                      A
 Frequencies --   1181.2490              1198.9136              1210.3344
 Red. masses --      1.4719                 1.4191                 1.5583
 Frc consts  --      1.2101                 1.2018                 1.3449
 IR Inten    --      1.1339                 0.0007                 0.7162

                     37                     38                     39
                      A                      A                      A
 Frequencies --   1238.8396              1266.4980              1275.5318
 Red. masses --      1.3671                 1.2439                 1.4534
 Frc consts  --      1.2362                 1.1755                 1.3932
 IR Inten    --      0.5443                 1.9440                 1.7850

                     40                     41                     42
                      A                      A                      A
 Frequencies --   1295.0097              1303.5307              1322.1187
 Red. masses --      1.5282                 1.4099                 1.3104
 Frc consts  --      1.5100                 1.4115                 1.3496
 IR Inten    --      0.1115                 0.1003                 0.0038

                     43                     44                     45
                      A                      A                      A
 Frequencies --   1334.5263              1345.9456              1350.7804
 Red. masses --      1.3707                 1.4718                 1.3323
 Frc consts  --      1.4383                 1.5709                 1.4323
 IR Inten    --      0.2782                 0.2747                 0.0569

                     46                     47                     48
                      A                      A                      A
 Frequencies --   1357.7505              1372.3249              1380.0143
 Red. masses --      1.3999                 1.3444                 1.3679
 Frc consts  --      1.5205                 1.4918                 1.5348
 IR Inten    --      1.4418                 1.6787                 5.2554

                     49                     50                     51
                      A                      A                      A
 Frequencies --   1385.2062              1514.4969              1521.6507
 Red. masses --      1.4516                 1.0864                 1.0788
 Frc consts  --      1.6411                 1.4681                 1.4717
 IR Inten    --      0.0631                 0.7317                 1.3804

                     52                     53                     54
                      A                      A                      A
 Frequencies --   1527.8941              1532.4032              1552.7467
 Red. masses --      1.0787                 1.1033                 1.0919
 Frc consts  --      1.4836                 1.5265                 1.5510
 IR Inten    --      4.7425                 8.1146                 5.2903

                     55                     56                     57
                      A                      A                      A
 Frequencies --   1870.5876              3047.3116              3049.7691
 Red. masses --     12.1827                 1.0703                 1.0674
 Frc consts  --     25.1160                 5.8559                 5.8492
 IR Inten    --    289.8114                11.9657                13.8236

                     58                     59                     60
                      A                      A                      A
 Frequencies --   3062.5140              3063.4952              3069.4223
 Red. masses --      1.0788                 1.0642                 1.0639
 Frc consts  --      5.9616                 5.8845                 5.9054
 IR Inten    --     42.3129                28.5944                19.8102

                     61                     62                     63
                      A                      A                      A
 Frequencies --   3077.4821              3079.8931              3087.6817
 Red. masses --      1.0819                 1.0638                 1.0971
 Frc consts  --      6.0369                 5.9455                 6.1626
 IR Inten    --     48.4125                22.0125                27.4176

                     64                     65                     66
                      A                      A                      A
 Frequencies --   3091.8064              3108.4287              3108.6025
 Red. masses --      1.1030                 1.1056                 1.1028
 Frc consts  --      6.2125                 6.2943                 6.2786
 IR Inten    --      9.5157                97.0135                 3.6545

                     67                     68                     69
                      A                      A                      A
 Frequencies --   3125.5386              3135.9201              3137.8123
 Red. masses --      1.1034                 1.0879                 1.0901
 Frc consts  --      6.3511                 6.3033                 6.3234
 IR Inten    --     29.4907                40.6912                14.2192

 - Thermochemistry -
 -------------------
 Temperature   298.150 Kelvin.  Pressure   1.00000 Atm.
 Atom     1 has atomic number  8 and mass  15.99491

 Molecular mass:   150.10447 amu.
 Principal axes and moments of inertia in atomic units:
                           1         2         3
     Eigenvalues --   890.286011811.883731846.91269
           X            0.99975  -0.00000   0.02229
           Y            0.00000   1.00000   0.00000
           Z           -0.02229  -0.00000   0.99975
 This molecule is an asymmetric top.
 Rotational symmetry number  1.
 Warning -- assumption of classical behavior for rotation
           may cause significant error
 Rotational temperatures (Kelvin)      0.09729     0.04780     0.04690
 Rotational constants (GHZ):           2.02715     0.99606     0.97717
 Zero-point vibrational energy     587676.1 (Joules/Mol)
                                  140.45795 (Kcal/Mol)
 Warning -- explicit consideration of  10 degrees of freedom as
           vibrations may cause significant error
 Vibrational temperatures:    177.93   191.40   312.24   376.06   386.11
          (Kelvin)            439.62   601.00   696.92   732.46   859.95
                              914.17   935.69  1040.65  1096.25  1120.61
                             1144.86  1182.38  1244.66  1265.12  1270.08
                             1288.43  1309.88  1382.28  1423.62  1447.87
                             1474.40  1507.14  1535.54  1568.36  1601.69
                             1635.27  1639.29  1689.42  1699.55  1724.97
                             1741.40  1782.41  1822.21  1835.21  1863.23
                             1875.49  1902.23  1920.09  1936.52  1943.47
                             1953.50  1974.47  1985.53  1993.00  2179.02
                             2189.32  2198.30  2204.79  2234.06  2691.36
                             4384.40  4387.94  4406.27  4407.69  4416.21
                             4427.81  4431.28  4442.49  4448.42  4472.34
                             4472.59  4496.95  4511.89  4514.61

 Zero-point correction=                           0.223834 (Hartree/Particle)
 Thermal correction to Energy=                    0.232336
 Thermal correction to Enthalpy=                  0.233280
 Thermal correction to Gibbs Free Energy=         0.190694
 Sum of electronic and zero-point Energies=           -464.478607
 Sum of electronic and thermal Energies=              -464.470105
 Sum of electronic and thermal Enthalpies=            -464.469161
 Sum of electronic and thermal Free Energies=         -464.511747

                     E (Thermal)             CV                S
                      KCal/Mol        Cal/Mol-Kelvin    Cal/Mol-Kelvin
 Total                  145.793             35.903             89.629
 Electronic               0.000              0.000              0.000
 Translational            0.889              2.981             40.929
 Rotational               0.889              2.981             29.478
 Vibrational            144.015             29.941             19.222
 Vibration     1          0.610              1.929              3.042
 Vibration     2          0.613              1.920              2.902
 Vibration     3          0.646              1.815              1.984
 Vibration     4          0.669              1.743              1.653
 Vibration     5          0.673              1.731              1.607
 Vibration     6          0.696              1.663              1.386
 Vibration     7          0.781              1.432              0.900
 Vibration     8          0.840              1.285              0.698
 Vibration     9          0.864              1.230              0.636
 Vibration    10          0.956              1.037              0.454

 Normal termination of Gaussian 16 at Thu Feb 22 01:34:59 2024.
