 Gaussian 16, Revision A.03,
 Gaussian 16:  EM64M-G16RevA.03 25-Dec-2016

 ---------------------
 # freq b3lyp/6-31g(d)
 ---------------------

 ---------
 good luck
 ---------
 Symbolic Z-matrix:
 Charge =  0 Multiplicity = 1

                         Standard orientation:
 ---------------------------------------------------------------------
 Center     Atomic      Atomic             Coordinates (Angstroms)
 Number     Number       Type             X           Y           Z
 ---------------------------------------------------------------------
      1          8           0        2.023239   -1.280857   -0.000000
      2          6           0        1.103743   -0.491267   -0.000000
      3          6           0        0.375258    0.100762    1.204869
      4          6           0       -0.981535   -0.655043    1.282581
      5          6           0       -1.814482   -0.460978   -0.000000
      6          6           0       -0.981535   -0.655043   -1.282581
      7          6           0        0.375258    0.100763   -1.204869
      8          6           0        0.199922    1.579592   -0.785277
      9          6           0        0.199922    1.579591    0.785277
     10          1           0        0.942370   -0.034495    2.129675
     11          1           0       -0.777160   -1.722070    1.442717
     12          1           0       -1.547150   -0.305411    2.155894
     13          1           0       -2.245772    0.548198    0.000000
     14          1           0       -2.666330   -1.151655   -0.000000
     15          1           0       -1.547150   -0.305411   -2.155893
     16          1           0       -0.777161   -1.722069   -1.442717
     17          1           0        0.942369   -0.034494   -2.129675
     18          1           0       -0.718167    2.013322   -1.196228
     19          1           0        1.033543    2.178679   -1.165977
     20          1           0       -0.718166    2.013320    1.196228
     21          1           0        1.033542    2.178677    1.165978
 ---------------------------------------------------------------------

 SCF Done:  E(RB3LYP) =  -387.300743259     A.U. after   13 cycles

 The electronic state is 1-A.
 Alpha  occ. eigenvalues --  -19.13327 -10.26163 -10.19330 -10.19330 -10.19160
 Alpha  occ. eigenvalues --  -10.19158 -10.19084 -10.19067 -10.19035  -1.03132
 Alpha  occ. eigenvalues --   -0.86003  -0.76954  -0.76000  -0.68625  -0.64858
 Alpha  occ. eigenvalues --   -0.59073  -0.56855  -0.51590  -0.49943  -0.45845
 Alpha  occ. eigenvalues --   -0.44590  -0.43043  -0.41598  -0.40341  -0.39901
 Alpha  occ. eigenvalues --   -0.39481  -0.36485  -0.36068  -0.35343  -0.32548
 Alpha  occ. eigenvalues --   -0.32518  -0.31696  -0.31284  -0.22706
 Alpha virt. eigenvalues --   -0.00756   0.07323   0.09266   0.12494   0.12644
 Alpha virt. eigenvalues --    0.14476   0.15926   0.16160   0.16374   0.16736
 Alpha virt. eigenvalues --    0.17682   0.17720   0.19640   0.20742   0.21934

 Mulliken charges:
               1
     1  O   -0.455645
     2  C    0.439606
     3  C   -0.159405
     4  C   -0.276208
     5  C   -0.277609
     6  C   -0.276208
     7  C   -0.159405
     8  C   -0.289629
     9  C   -0.289628
    10  H    0.143712
    11  H    0.150420
    12  H    0.143242
    13  H    0.141645
    14  H    0.143721
    15  H    0.143242
    16  H    0.150420
    17  H    0.143712
    18  H    0.142236
    19  H    0.149773
    20  H    0.142236
    21  H    0.149773
 Sum of Mulliken charges =  -0.00000

 Dipole moment (field-independent basis, Debye):
    X=             -2.4962    Y=              1.7334    Z=              0.0000  Tot=              3.0390
 Quadrupole moment (field-independent basis, Debye-Ang):
   XX=            -59.5212   YY=            -56.1775   ZZ=            -52.9423
   XY=              5.0515   XZ=              0.0000   YZ=              0.0000

  Exact polarizability:  79.812  -1.239  76.629  -0.000  -0.000  77.473
 Approx polarizability: 118.497 -10.071 112.473  -0.000  -0.000 107.063

                      1                      2                      3
                      A                      A                      A
 Frequencies --    126.3433               169.8892               275.6701
 Red. masses --      5.9189                 1.9247                 2.1279
 Frc consts  --      0.0557                 0.0327                 0.0953
 IR Inten    --      3.1363                 0.0210                 0.1775

                      4                      5                      6
                      A                      A                      A
 Frequencies --    278.1908               359.6968               412.2255
 Red. masses --      2.1348                 1.9782                 4.1475
 Frc consts  --      0.0973                 0.1508                 0.4152
 IR Inten    --      0.7503                 0.2272                 0.3593

                      7                      8                      9
                      A                      A                      A
 Frequencies --    465.5778               485.5797               651.5766
 Red. masses --      3.8447                 3.4342                 2.5425
 Frc consts  --      0.4910                 0.4771                 0.6360
 IR Inten    --      7.7795                 0.8187                 1.0452

                     10                     11                     12
                      A                      A                      A
 Frequencies --    700.1792               752.8997               776.4705
 Red. masses --      4.4032                 3.1293                 1.7452
 Frc consts  --      1.2718                 1.0451                 0.6199
 IR Inten    --      5.5708                 0.6562                 1.5254

                     13                     14                     15
                      A                      A                      A
 Frequencies --    789.9092               830.0513               851.9170
 Red. masses --      3.3282                 2.4993                 2.0274
 Frc consts  --      1.2235                 1.0146                 0.8669
 IR Inten    --      4.1183                 2.3634                 0.9315

                     16                     17                     18
                      A                      A                      A
 Frequencies --    879.5854               882.3603               974.7924
 Red. masses --      2.4822                 1.3950                 2.0958
 Frc consts  --      1.1315                 0.6399                 1.1734
 IR Inten    --      0.2849                 1.7767                 0.0024

                     19                     20                     21
                      A                      A                      A
 Frequencies --    974.9454               985.1498              1021.4794
 Red. masses --      2.2535                 2.3947                 1.8418
 Frc consts  --      1.2620                 1.3693                 1.1323
 IR Inten    --      3.8534                 0.7672                 9.3545

                     22                     23                     24
                      A                      A                      A
 Frequencies --   1058.1102              1089.6127              1096.7197
 Red. masses --      2.2687                 1.8169                 1.5047
 Frc consts  --      1.4965                 1.2709                 1.0664
 IR Inten    --      0.9600                 0.2857                18.2152

                     25                     26                     27
                      A                      A                      A
 Frequencies --   1106.3120              1182.8334              1203.4988
 Red. masses --      1.6747                 1.1169                 1.5601
 Frc consts  --      1.2076                 0.9207                 1.3314
 IR Inten    --      0.4560                 0.8119                 7.4723

                     28                     29                     30
                      A                      A                      A
 Frequencies --   1211.8591              1237.3333              1260.5831
 Red. masses --      1.6058                 1.5043                 1.2284
 Frc consts  --      1.3895                 1.3570                 1.1501
 IR Inten    --     14.0254                 1.0474                 0.1192

                     31                     32                     33
                      A                      A                      A
 Frequencies --   1276.2980              1298.4177              1325.2119
 Red. masses --      1.4660                 1.5748                 1.3650
 Frc consts  --      1.4070                 1.5642                 1.4124
 IR Inten    --      1.6969                 2.1624                 1.2379

                     34                     35                     36
                      A                      A                      A
 Frequencies --   1329.1876              1339.6733              1360.3412
 Red. masses --      1.2625                 1.3911                 1.4454
 Frc consts  --      1.3142                 1.4710                 1.5760
 IR Inten    --      3.0176                 2.5612                 0.1319

                     37                     38                     39
                      A                      A                      A
 Frequencies --   1382.9825              1393.9218              1401.0368
 Red. masses --      1.4704                 1.4189                 1.3969
 Frc consts  --      1.6570                 1.6243                 1.6156
 IR Inten    --      4.8309                 3.1037                 0.0879

                     40                     41                     42
                      A                      A                      A
 Frequencies --   1513.7393              1520.3238              1523.0550
 Red. masses --      1.0844                 1.0771                 1.0814
 Frc consts  --      1.4640                 1.4668                 1.4780
 IR Inten    --      0.6936                 2.8267                 4.0708

                     43                     44                     45
                      A                      A                      A
 Frequencies --   1529.2959              1547.4623              1847.6847
 Red. masses --      1.0979                 1.0905                11.7780
 Frc consts  --      1.5129                 1.5385                23.6908
 IR Inten    --      4.6272                 2.9213               230.4998

                     46                     47                     48
                      A                      A                      A
 Frequencies --   3038.6390              3039.1540              3047.3503
 Red. masses --      1.0594                 1.0602                 1.0685
 Frc consts  --      5.7634                 5.7697                 5.8463
 IR Inten    --     43.2619                16.9400                12.7107

                     49                     50                     51
                      A                      A                      A
 Frequencies --   3060.7698              3070.8861              3074.9874
 Red. masses --      1.0600                 1.0620                 1.0949
 Frc consts  --      5.8508                 5.9007                 6.1000
 IR Inten    --     21.5329                35.7704                45.6130

                     52                     53                     54
                      A                      A                      A
 Frequencies --   3076.9913              3091.5436              3092.4357
 Red. masses --      1.1054                 1.1043                 1.1069
 Frc consts  --      6.1665                 6.2185                 6.2365
 IR Inten    --     13.0179                70.2461                 2.4160

                     55                     56                     57
                      A                      A                      A
 Frequencies --   3107.9335              3109.8992              3117.2500
 Red. masses --      1.0937                 1.0874                 1.1002
 Frc consts  --      6.2243                 6.1965                 6.2989
 IR Inten    --      1.3459                38.5791                52.0630

 - Thermochemistry -
 -------------------
 Temperature   298.150 Kelvin.  Pressure   1.00000 Atm.
 Atom     1 has atomic number  8 and mass  15.99491

 Molecular mass:   124.08882 amu.
 Principal axes and moments of inertia in atomic units:
                           1         2         3
     Eigenvalues --   871.190821030.036941062.37216
           X            0.98819   0.15325   0.00000
           Y           -0.15325   0.98819  -0.00000
           Z           -0.00000   0.00000   1.00000
 This molecule is an asymmetric top.
 Rotational symmetry number  1.
 Warning -- assumption of classical behavior for rotation
           may cause significant error
 Rotational temperatures (Kelvin)      0.09942     0.08409     0.08153
 Rotational constants (GHZ):           2.07158     1.75211     1.69878
 Zero-point vibrational energy     494104.5 (Joules/Mol)
                                  118.09381 (Kcal/Mol)
 Warning -- explicit consideration of   8 degrees of freedom as
           vibrations may cause significant error
 Vibrational temperatures:    181.78   244.43   396.63   400.25   517.52
          (Kelvin)            593.10   669.86   698.64   937.47  1007.40
                             1083.25  1117.17  1136.50  1194.26  1225.72
                             1265.53  1269.52  1402.51  1402.73  1417.41
                             1469.68  1522.38  1567.71  1577.94  1591.74
                             1701.83  1731.57  1743.60  1780.25  1813.70
                             1836.31  1868.13  1906.68  1912.40  1927.49
                             1957.23  1989.80  2005.54  2015.78  2177.93
                             2187.41  2191.34  2200.32  2226.45  2658.41
                             4371.92  4372.66  4384.46  4403.77  4418.32
                             4424.22  4427.10  4448.04  4449.33  4471.62
                             4474.45  4485.03

 Zero-point correction=                           0.188194 (Hartree/Particle)
 Thermal correction to Energy=                    0.195558
 Thermal correction to Enthalpy=                  0.196502
 Thermal correction to Gibbs Free Energy=         0.156654
 Sum of electronic and zero-point Energies=           -387.112549
 Sum of electronic and thermal Energies=              -387.105185
 Sum of electronic and thermal Enthalpies=            -387.104241
 Sum of electronic and thermal Free Energies=         -387.144090

                     E (Thermal)             CV                S
                      KCal/Mol        Cal/Mol-Kelvin    Cal/Mol-Kelvin
 Total                  122.714             30.085             83.868
 Electronic               0.000              0.000              0.000
 Translational            0.889              2.981             40.361
 Rotational               0.889              2.981             28.346
 Vibrational            120.937             24.123             15.161
 Vibration     1          0.611              1.927              3.001
 Vibration     2          0.625              1.880              2.437
 Vibration     3          0.677              1.718              1.560
 Vibration     4          0.679              1.714              1.545
 Vibration     5          0.734              1.555              1.123
 Vibration     6          0.776              1.444              0.919
 Vibration     7          0.823              1.326              0.750
 Vibration     8          0.842              1.282              0.695

 Normal termination of Gaussian 16 at Wed Feb 21 18:39:26 2024.
