 Gaussian 16, Revision A.03,
 Gaussian 16:  EM64M-G16RevA.03 25-Dec-2016

 ---------------------
 # freq b3lyp/6-31g(d)
 ---------------------

 ---------
 good luck
 ---------
 Symbolic Z-matrix:
 Charge =  0 Multiplicity = 1

                         Standard orientation:
 ---------------------------------------------------------------------
 Center     Atomic      Atomic             Coordinates (Angstroms)
 Number     Number       Type             X           Y           Z
 ---------------------------------------------------------------------
      1          8           0        2.839768   -0.000002   -0.884199
      2          6           0        1.738127   -0.000001   -0.392554
      3          6           0        0.809684   -1.158674    0.013413
      4          6           0       -0.418644   -0.792708   -0.862933
      5          6           0       -0.418644    0.792703   -0.862936
      6          6           0       -1.819561    1.140274   -0.326397
      7          8           0       -2.258550    0.000001    0.408009
      8          6           0       -1.819560   -1.140275   -0.326393
      9          6           0        0.809684    1.158674    0.013409
     10          6           0        0.571356    0.785591    1.497298
     11          6           0        0.571356   -0.785585    1.497302
     12          1           0        1.211297   -2.158478   -0.158586
     13          1           0       -0.278250   -1.195862   -1.870963
     14          1           0       -0.278249    1.195854   -1.870968
     15          1           0       -1.844925    2.000471    0.348452
     16          1           0       -2.504325    1.340246   -1.166883
     17          1           0       -2.504325   -1.340251   -1.166877
     18          1           0       -1.844926   -2.000469    0.348461
     19          1           0        1.211295    2.158478   -0.158595
     20          1           0       -0.364962    1.190458    1.887454
     21          1           0        1.384897    1.180642    2.114652
     22          1           0        1.384898   -1.180634    2.114656
     23          1           0       -0.364961   -1.190450    1.887459
 ---------------------------------------------------------------------

 SCF Done:  E(RB3LYP) =  -500.598087822     A.U. after   14 cycles

 The electronic state is 1-A.
 Alpha  occ. eigenvalues --  -19.15253 -19.14438 -10.27108 -10.23595 -10.23594
 Alpha  occ. eigenvalues --  -10.20459 -10.20444 -10.19707 -10.19704 -10.19189
 Alpha  occ. eigenvalues --  -10.19173  -1.04348  -1.04078  -0.87603  -0.76614
 Alpha  occ. eigenvalues --   -0.76414  -0.70831  -0.68558  -0.60785  -0.59427
 Alpha  occ. eigenvalues --   -0.54223  -0.53911  -0.51780  -0.49577  -0.46765
 Alpha  occ. eigenvalues --   -0.45995  -0.44600  -0.42230  -0.41823  -0.39616
 Alpha  occ. eigenvalues --   -0.38336  -0.38235  -0.36722  -0.36581  -0.34820
 Alpha  occ. eigenvalues --   -0.34589  -0.32489  -0.32066  -0.30712  -0.25920
 Alpha  occ. eigenvalues --   -0.23305
 Alpha virt. eigenvalues --   -0.01095   0.07139   0.09468   0.11625   0.12272
 Alpha virt. eigenvalues --    0.12540   0.13045   0.13344   0.14498   0.15770
 Alpha virt. eigenvalues --    0.17070   0.17567   0.18705   0.18775   0.19674

 Mulliken charges:
               1
     1  O   -0.439140
     2  C    0.425432
     3  C   -0.170170
     4  C   -0.140038
     5  C   -0.140039
     6  C   -0.039582
     7  O   -0.473951
     8  C   -0.039582
     9  C   -0.170170
    10  C   -0.286951
    11  C   -0.286951
    12  H    0.140624
    13  H    0.145919
    14  H    0.145919
    15  H    0.151304
    16  H    0.129917
    17  H    0.129917
    18  H    0.151304
    19  H    0.140624
    20  H    0.162852
    21  H    0.149955
    22  H    0.149955
    23  H    0.162852
 Sum of Mulliken charges =  -0.00000

 Dipole moment (field-independent basis, Debye):
    X=             -1.8235    Y=             -0.0000    Z=              0.0219  Tot=              1.8237
 Quadrupole moment (field-independent basis, Debye-Ang):
   XX=            -78.1428   YY=            -60.4845   ZZ=            -64.1168
   XY=              0.0000   XZ=              7.0822   YZ=             -0.0000

  Exact polarizability:  95.568  -0.000  86.655   1.401  -0.000  81.849
 Approx polarizability: 139.700  -0.000 125.963  -6.342  -0.000 123.165

                      1                      2                      3
                      A                      A                      A
 Frequencies --    117.0696               124.7410               213.6554
 Red. masses --      2.9943                 7.7275                 5.5774
 Frc consts  --      0.0242                 0.0708                 0.1500
 IR Inten    --      1.5206                 4.8621                 6.4314

                      4                      5                      6
                      A                      A                      A
 Frequencies --    266.9758               312.7211               320.8300
 Red. masses --      1.8660                 3.0170                 2.2738
 Frc consts  --      0.0784                 0.1738                 0.1379
 IR Inten    --      0.4821                 1.5007                 3.0514

                      7                      8                      9
                      A                      A                      A
 Frequencies --    420.2149               490.4560               514.7411
 Red. masses --      2.8739                 3.5179                 3.8560
 Frc consts  --      0.2990                 0.4986                 0.6020
 IR Inten    --      1.2860                 1.5916                 4.3022

                     10                     11                     12
                      A                      A                      A
 Frequencies --    623.5167               662.2238               710.9711
 Red. masses --      4.4662                 5.6790                 6.1812
 Frc consts  --      1.0230                 1.4673                 1.8409
 IR Inten    --      2.0578                 3.8039                 7.0972

                     13                     14                     15
                      A                      A                      A
 Frequencies --    744.0074               784.5657               796.1094
 Red. masses --      2.8641                 2.6635                 2.3792
 Frc consts  --      0.9341                 0.9660                 0.8884
 IR Inten    --      8.3561                 0.7440                 0.0308

                     16                     17                     18
                      A                      A                      A
 Frequencies --    818.0466               838.6153               882.5747
 Red. masses --      3.4862                 2.3096                 2.1516
 Frc consts  --      1.3746                 0.9570                 0.9874
 IR Inten    --      3.7673                 3.4013                 4.7524

                     19                     20                     21
                      A                      A                      A
 Frequencies --    884.2080               940.0229               940.4804
 Red. masses --      4.6086                 2.0254                 2.6991
 Frc consts  --      2.1229                 1.0545                 1.4066
 IR Inten    --      3.6468                 8.7632                20.2749

                     22                     23                     24
                      A                      A                      A
 Frequencies --    962.8354              1008.5458              1015.6748
 Red. masses --      2.8244                 2.4244                 1.9639
 Frc consts  --      1.5427                 1.4529                 1.1937
 IR Inten    --      6.2063                 0.8452                 6.1682

                     25                     26                     27
                      A                      A                      A
 Frequencies --   1047.6097              1049.2443              1085.5532
 Red. masses --      2.5814                 1.8969                 2.5292
 Frc consts  --      1.6692                 1.2304                 1.7560
 IR Inten    --      5.2370                15.1618                 1.0500

                     28                     29                     30
                      A                      A                      A
 Frequencies --   1118.7759              1127.8264              1132.1383
 Red. masses --      1.6833                 3.7954                 1.0613
 Frc consts  --      1.2413                 2.8444                 0.8015
 IR Inten    --      4.1770                38.3108                 1.1336

                     31                     32                     33
                      A                      A                      A
 Frequencies --   1150.1536              1189.5780              1197.7605
 Red. masses --      3.2863                 1.6165                 1.4817
 Frc consts  --      2.5614                 1.3477                 1.2524
 IR Inten    --     49.3670                 0.2125                 0.0929

                     34                     35                     36
                      A                      A                      A
 Frequencies --   1224.9470              1233.3567              1264.4988
 Red. masses --      1.0875                 1.3746                 1.2363
 Frc consts  --      0.9614                 1.2320                 1.1647
 IR Inten    --      6.8497                 1.1807                 2.1902

                     37                     38                     39
                      A                      A                      A
 Frequencies --   1290.5562              1291.1407              1302.6671
 Red. masses --      1.4036                 1.3903                 1.3636
 Frc consts  --      1.3773                 1.3655                 1.3633
 IR Inten    --      0.3945                 0.8201                 1.7742

                     40                     41                     42
                      A                      A                      A
 Frequencies --   1313.8297              1336.6406              1351.7005
 Red. masses --      1.4227                 1.4464                 1.4552
 Frc consts  --      1.4469                 1.5225                 1.5665
 IR Inten    --      0.0875                 0.0730                 1.9016

                     43                     44                     45
                      A                      A                      A
 Frequencies --   1363.2874              1370.1570              1376.5957
 Red. masses --      1.2829                 1.3216                 1.5385
 Frc consts  --      1.4048                 1.4618                 1.7177
 IR Inten    --      1.6161                 1.2128                 1.6162

                     46                     47                     48
                      A                      A                      A
 Frequencies --   1416.2597              1515.5244              1537.3074
 Red. masses --      1.3473                 1.0823                 1.0802
 Frc consts  --      1.5922                 1.4646                 1.5041
 IR Inten    --      8.6913                 1.2632                 0.9161

                     49                     50                     51
                      A                      A                      A
 Frequencies --   1538.4305              1549.2468              1872.1923
 Red. masses --      1.1009                 1.0935                12.2045
 Frc consts  --      1.5351                 1.5463                25.2040
 IR Inten    --      7.1307                 1.4291               290.5076

                     52                     53                     54
                      A                      A                      A
 Frequencies --   2990.9630              2997.4249              3072.4095
 Red. masses --      1.0723                 1.0736                 1.0670
 Frc consts  --      5.6520                 5.6830                 5.9342
 IR Inten    --     36.9126               115.2586                20.7992

                     55                     56                     57
                      A                      A                      A
 Frequencies --   3077.4742              3083.4323              3090.8345
 Red. masses --      1.0866                 1.0643                 1.0861
 Frc consts  --      6.0632                 5.9616                 6.1134
 IR Inten    --     11.2095                41.3557                45.3875

                     58                     59                     60
                      A                      A                      A
 Frequencies --   3112.9733              3115.6111              3124.9524
 Red. masses --      1.0922                 1.0937                 1.0996
 Frc consts  --      6.2361                 6.2551                 6.3264
 IR Inten    --     23.0207                20.6295                 6.4146

                     61                     62                     63
                      A                      A                      A
 Frequencies --   3139.1876              3139.8706              3141.1854
 Red. masses --      1.0879                 1.1000                 1.0917
 Frc consts  --      6.3166                 6.3893                 6.3466
 IR Inten    --     38.4307                16.5270                23.4208

 - Thermochemistry -
 -------------------
 Temperature   298.150 Kelvin.  Pressure   1.00000 Atm.
 Atom     1 has atomic number  8 and mass  15.99491

 Molecular mass:   152.08373 amu.
 Principal axes and moments of inertia in atomic units:
                           1         2         3
     Eigenvalues --   857.454941779.027241799.66477
           X            0.99935   0.00000   0.03614
           Y           -0.00000   1.00000  -0.00000
           Z           -0.03614   0.00000   0.99935
 This molecule is an asymmetric top.
 Rotational symmetry number  1.
 Warning -- assumption of classical behavior for rotation
           may cause significant error
 Rotational temperatures (Kelvin)      0.10101     0.04869     0.04813
 Rotational constants (GHZ):           2.10477     1.01445     1.00282
 Zero-point vibrational energy     524724.6 (Joules/Mol)
                                  125.41219 (Kcal/Mol)
 Warning -- explicit consideration of   9 degrees of freedom as
           vibrations may cause significant error
 Vibrational temperatures:    168.44   179.47   307.40   384.12   449.94
          (Kelvin)            461.60   604.60   705.66   740.60   897.10
                              952.79  1022.93  1070.46  1128.82  1145.42
                             1176.99  1206.58  1269.83  1272.18  1352.48
                             1353.14  1385.31  1451.07  1461.33  1507.28
                             1509.63  1561.87  1609.67  1622.69  1628.89
                             1654.81  1711.54  1723.31  1762.43  1774.53
                             1819.33  1856.82  1857.66  1874.25  1890.31
                             1923.13  1944.80  1961.47  1971.35  1980.61
                             2037.68  2180.50  2211.84  2213.46  2229.02
                             2693.67  4303.33  4312.63  4420.51  4427.80
                             4436.37  4447.02  4478.87  4482.67  4496.11
                             4516.59  4517.57  4519.47

 Zero-point correction=                           0.199857 (Hartree/Particle)
 Thermal correction to Energy=                    0.208089
 Thermal correction to Enthalpy=                  0.209033
 Thermal correction to Gibbs Free Energy=         0.166812
 Sum of electronic and zero-point Energies=           -500.398231
 Sum of electronic and thermal Energies=              -500.389999
 Sum of electronic and thermal Enthalpies=            -500.389055
 Sum of electronic and thermal Free Energies=         -500.431276

                     E (Thermal)             CV                S
                      KCal/Mol        Cal/Mol-Kelvin    Cal/Mol-Kelvin
 Total                  130.578             34.157             88.862
 Electronic               0.000              0.000              0.000
 Translational            0.889              2.981             40.968
 Rotational               0.889              2.981             29.397
 Vibrational            128.800             28.196             18.497
 Vibration     1          0.608              1.935              3.148
 Vibration     2          0.610              1.928              3.026
 Vibration     3          0.644              1.820              2.012
 Vibration     4          0.672              1.734              1.616
 Vibration     5          0.701              1.649              1.348
 Vibration     6          0.706              1.634              1.306
 Vibration     7          0.783              1.426              0.891
 Vibration     8          0.846              1.271              0.682
 Vibration     9          0.870              1.217              0.622

 Optimization completed.
    -- Stationary point found.
 Normal termination of Gaussian 16 at Thu Feb 22 04:07:11 2024.
