 Gaussian 16, Revision A.03,
 Gaussian 16:  EM64M-G16RevA.03 25-Dec-2016

 ---------------------
 # freq b3lyp/6-31g(d)
 ---------------------

 ---------
 good luck
 ---------
 Symbolic Z-matrix:
 Charge =  0 Multiplicity = 1

                         Standard orientation:
 ---------------------------------------------------------------------
 Center     Atomic      Atomic             Coordinates (Angstroms)
 Number     Number       Type             X           Y           Z
 ---------------------------------------------------------------------
      1          8           0       -3.580536    0.020974   -1.398879
      2          6           0       -2.639681   -0.119744   -0.642781
      3          6           0       -2.422934   -1.371148    0.213754
      4          6           0       -1.064115   -1.266728    0.932386
      5          6           0        0.038525   -1.088218   -0.144983
      6          6           0        1.443183   -1.304909    0.422114
      7          8           0        2.342800   -1.504471   -0.663123
      8          6           0        3.665374   -1.743288   -0.233320
      9          6           0       -0.206966    0.268746   -0.913860
     10          6           0        0.955947    1.266169   -0.974610
     11          8           0        1.300550    1.782894    0.306371
     12          6           0        2.368353    2.705168    0.242309
     13          6           0       -1.540792    0.910348   -0.421489
     14          6           0       -1.520754    1.216791    1.098356
     15          6           0       -1.100489   -0.054755    1.887518
     16          1           0       -2.483193   -2.255444   -0.433222
     17          1           0       -3.252691   -1.450714    0.929662
     18          1           0       -0.872298   -2.187367    1.497825
     19          1           0       -0.092169   -1.902157   -0.870788
     20          1           0        1.774426   -0.455754    1.033817
     21          1           0        1.437810   -2.204632    1.062388
     22          1           0        4.071060   -0.894179    0.340609
     23          1           0        4.275737   -1.891444   -1.128324
     24          1           0        3.731444   -2.645435    0.396688
     25          1           0       -0.360917    0.014143   -1.971351
     26          1           0        1.829800    0.770213   -1.419848
     27          1           0        0.664773    2.099364   -1.637646
     28          1           0        2.114368    3.576639   -0.382208
     29          1           0        3.281228    2.243224   -0.166539
     30          1           0        2.566219    3.044738    1.262384
     31          1           0       -1.770802    1.806662   -1.006468
     32          1           0       -0.830370    2.038409    1.290531
     33          1           0       -2.520360    1.550912    1.402641
     34          1           0       -0.117223    0.091098    2.346955
     35          1           0       -1.803251   -0.254047    2.705591
 ---------------------------------------------------------------------

 SCF Done:  E(RB3LYP) =  -694.954454654     A.U. after   14 cycles

 The electronic state is 1-A.
 Alpha  occ. eigenvalues --  -19.15415 -19.14891 -19.12653 -10.26100 -10.23236
 Alpha  occ. eigenvalues --  -10.23000 -10.22878 -10.22569 -10.19839 -10.19289
 Alpha  occ. eigenvalues --  -10.19153 -10.18721 -10.18511 -10.18059 -10.17921
 Alpha  occ. eigenvalues --   -1.03592  -1.03027  -1.02572  -0.85898  -0.77573
 Alpha  occ. eigenvalues --   -0.76772  -0.72943  -0.71438  -0.69043  -0.65773
 Alpha  occ. eigenvalues --   -0.62667  -0.60097  -0.58622  -0.55435  -0.51237
 Alpha  occ. eigenvalues --   -0.49826  -0.49084  -0.48464  -0.46964  -0.46652
 Alpha  occ. eigenvalues --   -0.46203  -0.45590  -0.43704  -0.43176  -0.41971
 Alpha  occ. eigenvalues --   -0.40399  -0.40163  -0.39453  -0.38626  -0.37675
 Alpha  occ. eigenvalues --   -0.37111  -0.36817  -0.36288  -0.34996  -0.32965
 Alpha  occ. eigenvalues --   -0.32729  -0.32158  -0.30060  -0.29682  -0.29299
 Alpha  occ. eigenvalues --   -0.26699  -0.24730  -0.22556
 Alpha virt. eigenvalues --   -0.00523   0.06583   0.07845   0.10421   0.10707
 Alpha virt. eigenvalues --    0.12219   0.12634   0.13187   0.13706   0.13922
 Alpha virt. eigenvalues --    0.14909   0.15528   0.15980   0.16432   0.16868

 Mulliken charges:
               1
     1  O   -0.460643
     2  C    0.449683
     3  C   -0.361606
     4  C   -0.116203
     5  C   -0.108595
     6  C   -0.027334
     7  O   -0.474750
     8  C   -0.191330
     9  C   -0.135339
    10  C   -0.029153
    11  O   -0.467068
    12  C   -0.193271
    13  C   -0.169149
    14  C   -0.285455
    15  C   -0.275209
    16  H    0.167156
    17  H    0.166584
    18  H    0.119877
    19  H    0.140676
    20  H    0.150167
    21  H    0.113203
    22  H    0.129107
    23  H    0.157009
    24  H    0.130417
    25  H    0.147756
    26  H    0.152027
    27  H    0.119261
    28  H    0.134413
    29  H    0.133246
    30  H    0.157599
    31  H    0.133015
    32  H    0.171782
    33  H    0.139935
    34  H    0.148639
    35  H    0.133553
 Sum of Mulliken charges =  -0.00000

 Dipole moment (field-independent basis, Debye):
    X=              3.6824    Y=              0.1237    Z=              1.9705  Tot=              4.1783
 Quadrupole moment (field-independent basis, Debye-Ang):
   XX=            -97.0067   YY=            -86.4634   ZZ=            -93.4126
   XY=              3.1777   XZ=             -6.7925   YZ=             -2.1963

  Exact polarizability: 145.600   1.824 125.078   1.916  -2.641 114.869
 Approx polarizability: 186.970   0.793 172.141   8.217  -2.550 177.577

                      1                      2                      3
                      A                      A                      A
 Frequencies --     15.4792                56.0655                84.1272
 Red. masses --      4.0513                 3.3100                 3.0917
 Frc consts  --      0.0006                 0.0061                 0.0129
 IR Inten    --      0.9590                 0.0985                 3.3070

                      4                      5                      6
                      A                      A                      A
 Frequencies --     90.8652               100.3748               135.8414
 Red. masses --      5.2445                 2.0994                 2.9004
 Frc consts  --      0.0255                 0.0125                 0.0315
 IR Inten    --      1.7255                 2.1469                 1.2020

                      7                      8                      9
                      A                      A                      A
 Frequencies --    147.7815               180.9044               229.6410
 Red. masses --      1.8560                 3.3895                 1.4602
 Frc consts  --      0.0239                 0.0654                 0.0454
 IR Inten    --      8.5516                 0.4788                 0.9106

                     10                     11                     12
                      A                      A                      A
 Frequencies --    241.5266               248.2943               266.4922
 Red. masses --      1.7749                 2.0756                 2.4306
 Frc consts  --      0.0610                 0.0754                 0.1017
 IR Inten    --      6.2734                 5.0538                 3.0504

                     13                     14                     15
                      A                      A                      A
 Frequencies --    293.0388               301.0657               310.5733
 Red. masses --      2.8236                 2.4056                 2.7348
 Frc consts  --      0.1429                 0.1285                 0.1554
 IR Inten    --      0.7038                 0.1245                 1.0426

                     16                     17                     18
                      A                      A                      A
 Frequencies --    347.8549               391.3687               439.4929
 Red. masses --      2.7843                 3.0068                 4.8412
 Frc consts  --      0.1985                 0.2714                 0.5509
 IR Inten    --      1.7405                 2.7573                 6.3722

                     19                     20                     21
                      A                      A                      A
 Frequencies --    497.6035               523.4517               549.4060
 Red. masses --      4.1372                 2.9125                 3.5965
 Frc consts  --      0.6036                 0.4702                 0.6396
 IR Inten    --      4.6256                 3.7992                 0.2421

                     22                     23                     24
                      A                      A                      A
 Frequencies --    599.8336               615.3686               712.3157
 Red. masses --      2.9345                 4.1725                 4.3439
 Frc consts  --      0.6221                 0.9309                 1.2986
 IR Inten    --      0.0412                 0.0880                 2.0565

                     25                     26                     27
                      A                      A                      A
 Frequencies --    739.4758               781.9978               820.8127
 Red. masses --      3.7165                 2.5299                 1.5822
 Frc consts  --      1.1974                 0.9115                 0.6280
 IR Inten    --      1.6443                 5.3328                 7.2508

                     28                     29                     30
                      A                      A                      A
 Frequencies --    840.1961               866.9266               894.8134
 Red. masses --      2.9540                 2.2894                 2.5209
 Frc consts  --      1.2286                 1.0138                 1.1892
 IR Inten    --      0.8811                 7.1563                 1.0089

                     31                     32                     33
                      A                      A                      A
 Frequencies --    934.2703               946.9851               971.5887
 Red. masses --      1.9530                 2.6961                 2.9387
 Frc consts  --      1.0044                 1.4245                 1.6345
 IR Inten    --      8.0996                 1.7971                 4.4240

                     34                     35                     36
                      A                      A                      A
 Frequencies --    986.0243               996.7647              1035.8884
 Red. masses --      3.3850                 2.0294                 2.4910
 Frc consts  --      1.9390                 1.1880                 1.5749
 IR Inten    --     33.0115                 4.0396                 2.3453

                     37                     38                     39
                      A                      A                      A
 Frequencies --   1046.9732              1080.2087              1091.3422
 Red. masses --      2.1384                 2.2483                 2.2972
 Frc consts  --      1.3811                 1.5457                 1.6120
 IR Inten    --      3.1742                 4.8757                19.2316

                     40                     41                     42
                      A                      A                      A
 Frequencies --   1099.3454              1105.1799              1135.9993
 Red. masses --      2.2617                 2.2742                 1.9022
 Frc consts  --      1.6105                 1.6366                 1.4463
 IR Inten    --      5.9645                 1.0749                52.0030

                     43                     44                     45
                      A                      A                      A
 Frequencies --   1144.0854              1160.9729              1162.1033
 Red. masses --      1.6716                 3.8873                 3.2750
 Frc consts  --      1.2891                 3.0870                 2.6058
 IR Inten    --     25.4840               117.2385               144.6562

                     46                     47                     48
                      A                      A                      A
 Frequencies --   1191.2897              1192.9633              1196.3775
 Red. masses --      1.2758                 1.2769                 1.2512
 Frc consts  --      1.0668                 1.0707                 1.0551
 IR Inten    --      9.5301                 1.3228                 2.5183

                     49                     50                     51
                      A                      A                      A
 Frequencies --   1219.4058              1227.8343              1237.0482
 Red. masses --      1.4765                 1.5672                 1.7271
 Frc consts  --      1.2936                 1.3921                 1.5572
 IR Inten    --     11.0386                22.6933                26.7703

                     52                     53                     54
                      A                      A                      A
 Frequencies --   1250.8549              1266.5994              1280.5826
 Red. masses --      1.4537                 1.3287                 1.2348
 Frc consts  --      1.3401                 1.2559                 1.1930
 IR Inten    --     14.2067                 1.1769                 6.4511

                     55                     56                     57
                      A                      A                      A
 Frequencies --   1290.2170              1307.0373              1320.6904
 Red. masses --      1.3000                 1.3817                 1.3272
 Frc consts  --      1.2751                 1.3907                 1.3639
 IR Inten    --      1.1159                 1.9566                 8.0042

                     58                     59                     60
                      A                      A                      A
 Frequencies --   1332.5587              1351.4825              1362.9256
 Red. masses --      1.3926                 1.3924                 1.4458
 Frc consts  --      1.4569                 1.4984                 1.5823
 IR Inten    --      1.6954                 0.6556                 3.6826

                     61                     62                     63
                      A                      A                      A
 Frequencies --   1370.7172              1380.7735              1394.4723
 Red. masses --      1.4837                 1.4673                 1.4601
 Frc consts  --      1.6424                 1.6482                 1.6729
 IR Inten    --      5.6773                 3.0658                 3.2406

                     64                     65                     66
                      A                      A                      A
 Frequencies --   1394.8673              1406.2659              1444.1686
 Red. masses --      1.4299                 1.3471                 1.3343
 Frc consts  --      1.6392                 1.5696                 1.6396
 IR Inten    --      2.7796                 5.5865                 5.7995

                     67                     68                     69
                      A                      A                      A
 Frequencies --   1448.1839              1476.2962              1498.0256
 Red. masses --      1.3071                 1.0874                 1.1530
 Frc consts  --      1.6152                 1.3963                 1.5245
 IR Inten    --     49.4341                 7.4281                 6.1423

                     70                     71                     72
                      A                      A                      A
 Frequencies --   1504.2144              1513.6415              1514.4891
 Red. masses --      1.1642                 1.0485                 1.0485
 Frc consts  --      1.5520                 1.4154                 1.4169
 IR Inten    --      2.4980                 1.8310                 6.7679

                     73                     74                     75
                      A                      A                      A
 Frequencies --   1517.5253              1529.2946              1531.6172
 Red. masses --      1.0755                 1.0601                 1.0616
 Frc consts  --      1.4592                 1.4607                 1.4672
 IR Inten    --      2.9885                11.7155                11.5985

                     76                     77                     78
                      A                      A                      A
 Frequencies --   1539.2646              1551.6382              1560.2292
 Red. masses --      1.0880                 1.0806                 1.0978
 Frc consts  --      1.5189                 1.5328                 1.5745
 IR Inten    --      7.6712                 1.1623                 6.0501

                     79                     80                     81
                      A                      A                      A
 Frequencies --   1825.6730              2969.3547              2975.4157
 Red. masses --     11.9097                 1.0671                 1.0647
 Frc consts  --     23.3882                 5.5434                 5.5533
 IR Inten    --    227.1520                55.1474                35.7492

                     82                     83                     84
                      A                      A                      A
 Frequencies --   2987.9180              2993.2332              3021.9277
 Red. masses --      1.0399                 1.0398                 1.0847
 Frc consts  --      5.4697                 5.4886                 5.8364
 IR Inten    --     77.9704                87.8030                 9.1871

                     85                     86                     87
                      A                      A                      A
 Frequencies --   3029.0635              3036.3445              3040.7511
 Red. masses --      1.1047                 1.1044                 1.0848
 Frc consts  --      5.9717                 5.9992                 5.9095
 IR Inten    --     83.0200                56.7039                21.8744

                     88                     89                     90
                      A                      A                      A
 Frequencies --   3041.5986              3046.9854              3051.2090
 Red. masses --      1.0680                 1.0689                 1.0926
 Frc consts  --      5.8212                 5.8468                 5.9933
 IR Inten    --     11.1167                10.7123                26.3383

                     91                     92                     93
                      A                      A                      A
 Frequencies --   3053.3656              3064.0065              3066.1716
 Red. masses --      1.0774                 1.0716                 1.0914
 Frc consts  --      5.9181                 5.9274                 6.0455
 IR Inten    --     46.4220                61.6861                42.4078

                     94                     95                     96
                      A                      A                      A
 Frequencies --   3085.7053              3089.8092              3097.3242
 Red. masses --      1.1008                 1.0872                 1.1005
 Frc consts  --      6.1754                 6.1151                 6.2205
 IR Inten    --     17.6962                23.5378                36.1666

                     97                     98                     99
                      A                      A                      A
 Frequencies --   3132.9011              3135.9121              3152.0716
 Red. masses --      1.0965                 1.0971                 1.0930
 Frc consts  --      6.3409                 6.3564                 6.3985
 IR Inten    --     33.0839                29.4251                 9.3652

 - Thermochemistry -
 -------------------
 Temperature   298.150 Kelvin.  Pressure   1.00000 Atm.
 Atom     1 has atomic number  8 and mass  15.99491

 Molecular mass:   212.14124 amu.
 Principal axes and moments of inertia in atomic units:
                           1         2         3
     Eigenvalues --  2093.820783965.033284802.79395
           X            0.99988   0.00735  -0.01387
           Y           -0.00759   0.99983  -0.01687
           Z            0.01374   0.01697   0.99976
 This molecule is an asymmetric top.
 Rotational symmetry number  1.
 Warning -- assumption of classical behavior for rotation
           may cause significant error
 Rotational temperatures (Kelvin)      0.04137     0.02184     0.01803
 Rotational constants (GHZ):           0.86194     0.45516     0.37577
 Zero-point vibrational energy     817773.3 (Joules/Mol)
                                  195.45250 (Kcal/Mol)
 Warning -- explicit consideration of  23 degrees of freedom as
           vibrations may cause significant error
 Vibrational temperatures:     22.27    80.67   121.04   130.73   144.42
          (Kelvin)            195.45   212.62   260.28   330.40   347.50
                              357.24   383.42   421.62   433.17   446.85
                              500.49   563.09   632.33   715.94   753.13
                              790.47   863.03   885.38  1024.86  1063.94
                             1125.12  1180.97  1208.85  1247.31  1287.44
                             1344.21  1362.50  1397.90  1418.67  1434.12
                             1490.41  1506.36  1554.18  1570.20  1581.71
                             1590.11  1634.45  1646.08  1670.38  1672.01
                             1714.00  1716.41  1721.32  1754.45  1766.58
                             1779.84  1799.70  1822.35  1842.47  1856.33
                             1880.54  1900.18  1917.25  1944.48  1960.95
                             1972.16  1986.63  2006.33  2006.90  2023.30
                             2077.84  2083.61  2124.06  2155.32  2164.23
                             2177.79  2179.01  2183.38  2200.31  2203.66
                             2214.66  2232.46  2244.82  2626.74  4272.24
                             4280.96  4298.95  4306.59  4347.88  4358.15
                             4368.62  4374.96  4376.18  4383.93  4390.01
                             4393.11  4408.42  4411.54  4439.64  4445.55
                             4456.36  4507.55  4511.88  4535.13

 Zero-point correction=                           0.311473 (Hartree/Particle)
 Thermal correction to Energy=                    0.326607
 Thermal correction to Enthalpy=                  0.327551
 Thermal correction to Gibbs Free Energy=         0.268263
 Sum of electronic and zero-point Energies=           -694.642981
 Sum of electronic and thermal Energies=              -694.627848
 Sum of electronic and thermal Enthalpies=            -694.626904
 Sum of electronic and thermal Free Energies=         -694.686192

                     E (Thermal)             CV                S
                      KCal/Mol        Cal/Mol-Kelvin    Cal/Mol-Kelvin
 Total                  204.949             57.004            124.782
 Electronic               0.000              0.000              0.000
 Translational            0.889              2.981             41.960
 Rotational               0.889              2.981             32.056
 Vibrational            203.171             51.043             50.766
 Vibration     1          0.593              1.986              7.143
 Vibration     2          0.596              1.975              4.591
 Vibration     3          0.601              1.960              3.792
 Vibration     4          0.602              1.956              3.641
 Vibration     5          0.604              1.949              3.447
 Vibration     6          0.614              1.918              2.862
 Vibration     7          0.617              1.905              2.701
 Vibration     8          0.630              1.866              2.319
 Vibration     9          0.652              1.796              1.882
 Vibration    10          0.658              1.777              1.792
 Vibration    11          0.662              1.766              1.743
 Vibration    12          0.672              1.735              1.619
 Vibration    13          0.688              1.687              1.456
 Vibration    14          0.693              1.672              1.411
 Vibration    15          0.699              1.654              1.359
 Vibration    16          0.725              1.580              1.176
 Vibration    17          0.759              1.489              0.995
 Vibration    18          0.800              1.384              0.828
 Vibration    19          0.853              1.255              0.664
 Vibration    20          0.878              1.198              0.602
 Vibration    21          0.905              1.141              0.545
 Vibration    22          0.958              1.032              0.450
 Vibration    23          0.975              0.999              0.424

 Normal termination of Gaussian 16 at Sat Feb 24 00:07:28 2024.
