 Gaussian 16, Revision A.03,
 Gaussian 16:  EM64M-G16RevA.03 25-Dec-2016

 ---------------------
 # freq b3lyp/6-31g(d)
 ---------------------

 ---------
 good luck
 ---------
 Symbolic Z-matrix:
 Charge =  0 Multiplicity = 1

                         Standard orientation:
 ---------------------------------------------------------------------
 Center     Atomic      Atomic             Coordinates (Angstroms)
 Number     Number       Type             X           Y           Z
 ---------------------------------------------------------------------
      1          8           0       -3.818652   -0.006545   -0.563657
      2          6           0       -2.656619   -0.243716   -0.298317
      3          6           0       -2.040667   -1.644738   -0.352328
      4          6           0       -0.601305   -1.593952    0.195011
      5          6           0        0.259775   -0.694808   -0.733349
      6          6           0        1.727897   -0.649088   -0.294634
      7          8           0        2.225124   -1.978708   -0.338519
      8          6           0        3.581043   -2.065193    0.038520
      9          6           0       -0.455283    0.700953   -0.885954
     10          6           0        0.427934    1.951315   -0.912390
     11          8           0        1.085866    2.168296    0.324491
     12          6           0        1.885890    3.332952    0.317301
     13          6           0       -1.634510    0.801654    0.128624
     14          6           0       -1.189904    0.450661    1.572141
     15          6           0       -0.658057   -1.010941    1.622194
     16          1           0       -2.071322   -2.000438   -1.391910
     17          1           0       -2.674485   -2.328188    0.226919
     18          1           0       -0.165256   -2.596653    0.213572
     19          1           0        0.274195   -1.173107   -1.721915
     20          1           0        2.313537   -0.012423   -0.978029
     21          1           0        1.846425   -0.226676    0.712149
     22          1           0        3.868856   -3.118242   -0.024056
     23          1           0        3.743444   -1.711008    1.069652
     24          1           0        4.230228   -1.477770   -0.631754
     25          1           0       -0.912829    0.711515   -1.886079
     26          1           0       -0.207100    2.821695   -1.152481
     27          1           0        1.172785    1.866724   -1.723047
     28          1           0        2.348837    3.413913    1.303955
     29          1           0        1.284582    4.236171    0.127641
     30          1           0        2.677162    3.277102   -0.447410
     31          1           0       -2.097619    1.792657    0.086444
     32          1           0       -2.041358    0.579983    2.249981
     33          1           0       -0.420451    1.161937    1.878312
     34          1           0       -1.314551   -1.641171    2.234933
     35          1           0        0.329044   -1.050956    2.093689
 ---------------------------------------------------------------------

 SCF Done:  E(RB3LYP) =  -694.954300695     A.U. after   14 cycles

 The electronic state is 1-A.
 Alpha  occ. eigenvalues --  -19.15978 -19.14576 -19.12597 -10.26028 -10.24045
 Alpha  occ. eigenvalues --  -10.23642 -10.22660 -10.22456 -10.20265 -10.19133
 Alpha  occ. eigenvalues --  -10.18797 -10.18523 -10.18260 -10.17942 -10.17819
 Alpha  occ. eigenvalues --   -1.04239  -1.02905  -1.02510  -0.85845  -0.77856
 Alpha  occ. eigenvalues --   -0.76492  -0.73069  -0.71535  -0.68938  -0.65761
 Alpha  occ. eigenvalues --   -0.63118  -0.59916  -0.58769  -0.55277  -0.51267
 Alpha  occ. eigenvalues --   -0.50097  -0.49307  -0.48034  -0.47233  -0.47060
 Alpha  occ. eigenvalues --   -0.46225  -0.45582  -0.43989  -0.43231  -0.41550
 Alpha  occ. eigenvalues --   -0.40708  -0.39972  -0.39904  -0.38129  -0.37615
 Alpha  occ. eigenvalues --   -0.37320  -0.36852  -0.35967  -0.35120  -0.33149
 Alpha  occ. eigenvalues --   -0.32976  -0.31989  -0.30227  -0.29518  -0.28965
 Alpha  occ. eigenvalues --   -0.26582  -0.25222  -0.22493
 Alpha virt. eigenvalues --   -0.00477   0.06361   0.08532   0.09097   0.11087
 Alpha virt. eigenvalues --    0.12424   0.12866   0.13033   0.13449   0.13923
 Alpha virt. eigenvalues --    0.14242   0.15864   0.16060   0.16439   0.16990

 Mulliken charges:
               1
     1  O   -0.460914
     2  C    0.446885
     3  C   -0.364625
     4  C   -0.101661
     5  C   -0.113717
     6  C   -0.020573
     7  O   -0.470269
     8  C   -0.188283
     9  C   -0.141866
    10  C   -0.028289
    11  O   -0.459307
    12  C   -0.194067
    13  C   -0.164427
    14  C   -0.289769
    15  C   -0.286838
    16  H    0.165361
    17  H    0.167149
    18  H    0.146467
    19  H    0.134867
    20  H    0.113970
    21  H    0.141885
    22  H    0.156813
    23  H    0.128757
    24  H    0.126841
    25  H    0.142552
    26  H    0.127367
    27  H    0.123637
    28  H    0.161447
    29  H    0.136196
    30  H    0.132901
    31  H    0.132570
    32  H    0.144299
    33  H    0.173405
    34  H    0.135431
    35  H    0.145803
 Sum of Mulliken charges =  -0.00000

 Dipole moment (field-independent basis, Debye):
    X=              4.0381    Y=              1.2735    Z=              0.1893  Tot=              4.2383
 Quadrupole moment (field-independent basis, Debye-Ang):
   XX=           -101.9740   YY=            -85.8067   ZZ=            -89.5522
   XY=              4.0609   XZ=             -2.2823   YZ=             -2.0011

  Exact polarizability: 143.756   0.434 130.852   1.904  -0.748 111.036
 Approx polarizability: 191.376  -1.589 175.736   5.028  -0.295 168.983

                      1                      2                      3
                      A                      A                      A
 Frequencies --     25.4226                65.4498                80.5413
 Red. masses --      3.8085                 3.0413                 3.0108
 Frc consts  --      0.0015                 0.0077                 0.0115
 IR Inten    --      0.9847                 0.1912                 0.7758

                      4                      5                      6
                      A                      A                      A
 Frequencies --     94.9521               101.1030               119.4351
 Red. masses --      5.1659                 2.1041                 3.3092
 Frc consts  --      0.0274                 0.0127                 0.0278
 IR Inten    --      3.9513                 3.2427                 4.4146

                      7                      8                      9
                      A                      A                      A
 Frequencies --    128.0497               185.5681               223.7618
 Red. masses --      2.1508                 3.7330                 1.9190
 Frc consts  --      0.0208                 0.0757                 0.0566
 IR Inten    --      1.6125                 1.3093                 1.2216

                     10                     11                     12
                      A                      A                      A
 Frequencies --    227.9308               235.5656               276.5283
 Red. masses --      1.3984                 1.8588                 2.0398
 Frc consts  --      0.0428                 0.0608                 0.0919
 IR Inten    --      2.7224                 1.8353                 1.5977

                     13                     14                     15
                      A                      A                      A
 Frequencies --    283.9343               311.0164               338.5056
 Red. masses --      2.4949                 3.2213                 2.5826
 Frc consts  --      0.1185                 0.1836                 0.1744
 IR Inten    --      0.5033                 0.9308                 2.1778

                     16                     17                     18
                      A                      A                      A
 Frequencies --    347.9248               394.4028               455.0888
 Red. masses --      3.3497                 2.4952                 4.4760
 Frc consts  --      0.2389                 0.2287                 0.5462
 IR Inten    --      2.0203                 2.7262                 6.8382

                     19                     20                     21
                      A                      A                      A
 Frequencies --    490.3682               524.8980               561.3811
 Red. masses --      3.7559                 3.8166                 2.7672
 Frc consts  --      0.5321                 0.6196                 0.5138
 IR Inten    --      4.5210                 0.9652                 0.1197

                     22                     23                     24
                      A                      A                      A
 Frequencies --    596.5737               610.5972               715.1429
 Red. masses --      4.2736                 3.1237                 4.9714
 Frc consts  --      0.8961                 0.6862                 1.4980
 IR Inten    --      0.6696                 0.4667                 0.4497

                     25                     26                     27
                      A                      A                      A
 Frequencies --    752.2975               778.3739               803.2051
 Red. masses --      4.0969                 2.3400                 2.3212
 Frc consts  --      1.3661                 0.8353                 0.8823
 IR Inten    --      1.6128                 2.7262                 2.1835

                     28                     29                     30
                      A                      A                      A
 Frequencies --    842.9958               858.0137               895.1936
 Red. masses --      1.6133                 2.6935                 2.3290
 Frc consts  --      0.6755                 1.1683                 1.0996
 IR Inten    --      4.4596                 0.7620                 3.6958

                     31                     32                     33
                      A                      A                      A
 Frequencies --    938.6719               951.7813               977.1477
 Red. masses --      2.0426                 2.5838                 3.7463
 Frc consts  --      1.0604                 1.3790                 2.1075
 IR Inten    --     21.1925                 4.7970                19.1183

                     34                     35                     36
                      A                      A                      A
 Frequencies --    982.9670              1009.2080              1020.7638
 Red. masses --      2.2419                 1.8145                 3.0513
 Frc consts  --      1.2763                 1.0888                 1.8732
 IR Inten    --      4.8050                 2.7500                 8.2066

                     37                     38                     39
                      A                      A                      A
 Frequencies --   1045.4426              1081.6735              1086.6928
 Red. masses --      2.4524                 2.1529                 2.5719
 Frc consts  --      1.5792                 1.4841                 1.7895
 IR Inten    --      2.4231                 7.1999                 0.9095

                     40                     41                     42
                      A                      A                      A
 Frequencies --   1098.9601              1108.2550              1125.7213
 Red. masses --      2.7170                 1.7362                 1.8118
 Frc consts  --      1.9333                 1.2564                 1.3527
 IR Inten    --     46.1179                 4.3415                24.4151

                     43                     44                     45
                      A                      A                      A
 Frequencies --   1150.5514              1164.8553              1166.8324
 Red. masses --      1.3982                 5.0473                 3.8262
 Frc consts  --      1.0905                 4.0351                 3.0693
 IR Inten    --      4.5453               153.6359               158.9908

                     46                     47                     48
                      A                      A                      A
 Frequencies --   1191.0109              1192.2295              1197.4934
 Red. masses --      1.2851                 1.2626                 1.2493
 Frc consts  --      1.0740                 1.0574                 1.0555
 IR Inten    --      4.4956                 1.7040                 9.0885

                     49                     50                     51
                      A                      A                      A
 Frequencies --   1220.2740              1226.3645              1237.5844
 Red. masses --      1.6783                 1.5793                 1.6823
 Frc consts  --      1.4724                 1.3995                 1.5181
 IR Inten    --     20.8900                21.5710                38.9999

                     52                     53                     54
                      A                      A                      A
 Frequencies --   1249.4604              1260.6430              1265.8874
 Red. masses --      1.5178                 1.2748                 1.2214
 Frc consts  --      1.3960                 1.1936                 1.1532
 IR Inten    --     10.9341                 3.0731                 7.8905

                     55                     56                     57
                      A                      A                      A
 Frequencies --   1296.0649              1311.6637              1314.3488
 Red. masses --      1.2188                 1.5790                 1.3284
 Frc consts  --      1.2063                 1.6006                 1.3521
 IR Inten    --      2.3272                 0.4498                 3.8112

                     58                     59                     60
                      A                      A                      A
 Frequencies --   1334.8515              1353.1263              1363.0381
 Red. masses --      1.4413                 1.4290                 1.4274
 Frc consts  --      1.5131                 1.5415                 1.5624
 IR Inten    --      0.4745                 5.6091                 1.7554

                     61                     62                     63
                      A                      A                      A
 Frequencies --   1368.2317              1375.1250              1391.9656
 Red. masses --      1.3465                 1.4010                 1.4748
 Frc consts  --      1.4852                 1.5609                 1.6836
 IR Inten    --      3.1594                 9.3081                 1.5814

                     64                     65                     66
                      A                      A                      A
 Frequencies --   1402.4195              1403.9494              1442.4594
 Red. masses --      1.4706                 1.4446                 1.2917
 Frc consts  --      1.7042                 1.6776                 1.5836
 IR Inten    --      2.0371                 2.0009                25.1227

                     67                     68                     69
                      A                      A                      A
 Frequencies --   1443.6349              1475.9625              1502.4284
 Red. masses --      1.3513                 1.0860                 1.1608
 Frc consts  --      1.6593                 1.3940                 1.5438
 IR Inten    --     31.2233                10.2463                 3.3974

                     70                     71                     72
                      A                      A                      A
 Frequencies --   1503.7912              1514.1547              1514.7751
 Red. masses --      1.1641                 1.0484                 1.0480
 Frc consts  --      1.5510                 1.4162                 1.4167
 IR Inten    --      1.9564                 4.1077                 5.7540

                     73                     74                     75
                      A                      A                      A
 Frequencies --   1521.6627              1530.5122              1532.1984
 Red. masses --      1.0756                 1.0654                 1.0637
 Frc consts  --      1.4674                 1.4704                 1.4714
 IR Inten    --      0.1243                11.8341                13.3629

                     76                     77                     78
                      A                      A                      A
 Frequencies --   1543.0705              1555.9007              1558.2249
 Red. masses --      1.0821                 1.0909                 1.0848
 Frc consts  --      1.5181                 1.5559                 1.5519
 IR Inten    --      5.4798                 4.9728                 3.1104

                     79                     80                     81
                      A                      A                      A
 Frequencies --   1825.5568              2966.0347              2981.6647
 Red. masses --     11.8844                 1.0552                 1.0463
 Frc consts  --     23.3355                 5.4691                 5.4803
 IR Inten    --    228.1920                21.3675                70.0015

                     82                     83                     84
                      A                      A                      A
 Frequencies --   2991.0121              2994.6320              2998.3004
 Red. masses --      1.0783                 1.0407                 1.0832
 Frc consts  --      5.6838                 5.4990                 5.7374
 IR Inten    --     24.5822                97.8480                95.5525

                     85                     86                     87
                      A                      A                      A
 Frequencies --   3010.4383              3027.1802              3035.0425
 Red. masses --      1.0834                 1.1044                 1.0820
 Frc consts  --      5.7852                 5.9627                 5.8725
 IR Inten    --     21.0899                65.6661                16.8473

                     88                     89                     90
                      A                      A                      A
 Frequencies --   3039.1921              3041.6075              3050.0217
 Red. masses --      1.1051                 1.0639                 1.0686
 Frc consts  --      6.0141                 5.7993                 5.8567
 IR Inten    --     56.1321                20.0536                19.4954

                     91                     92                     93
                      A                      A                      A
 Frequencies --   3058.5712              3068.7666              3083.4205
 Red. masses --      1.0935                 1.0688                 1.0998
 Frc consts  --      6.0269                 5.9305                 6.1608
 IR Inten    --     51.4669                47.2903                18.0842

                     94                     95                     96
                      A                      A                      A
 Frequencies --   3090.6524              3095.6689              3103.5320
 Red. masses --      1.0865                 1.0973                 1.0864
 Frc consts  --      6.1150                 6.1959                 6.1654
 IR Inten    --     34.4867                28.1673                23.2568

                     97                     98                     99
                      A                      A                      A
 Frequencies --   3132.1035              3139.6022              3140.2993
 Red. masses --      1.0963                 1.0967                 1.0971
 Frc consts  --      6.3366                 6.3693                 6.3742
 IR Inten    --     36.2070                13.7168                23.8559

 - Thermochemistry -
 -------------------
 Temperature   298.150 Kelvin.  Pressure   1.00000 Atm.
 Atom     1 has atomic number  8 and mass  15.99491

 Molecular mass:   212.14124 amu.
 Principal axes and moments of inertia in atomic units:
                           1         2         3
     Eigenvalues --  2506.985973549.889185077.40884
           X            0.99984   0.01692  -0.00509
           Y           -0.01696   0.99982  -0.00870
           Z            0.00494   0.00879   0.99995
 This molecule is an asymmetric top.
 Rotational symmetry number  1.
 Warning -- assumption of classical behavior for rotation
           may cause significant error
 Rotational temperatures (Kelvin)      0.03455     0.02440     0.01706
 Rotational constants (GHZ):           0.71988     0.50839     0.35545
 Zero-point vibrational energy     817656.9 (Joules/Mol)
                                  195.42468 (Kcal/Mol)
 Warning -- explicit consideration of  23 degrees of freedom as
           vibrations may cause significant error
 Vibrational temperatures:     36.58    94.17   115.88   136.61   145.46
          (Kelvin)            171.84   184.23   266.99   321.94   327.94
                              338.93   397.86   408.52   447.48   487.03
                              500.59   567.46   654.77   705.53   755.21
                              807.70   858.34   878.51  1028.93  1082.39
                             1119.91  1155.63  1212.88  1234.49  1287.98
                             1350.54  1369.40  1405.90  1414.27  1452.03
                             1468.65  1504.16  1556.29  1563.51  1581.16
                             1594.53  1619.66  1655.39  1675.97  1678.81
                             1713.60  1715.35  1722.93  1755.70  1764.47
                             1780.61  1797.69  1813.78  1821.33  1864.75
                             1887.19  1891.05  1920.55  1946.85  1961.11
                             1968.58  1978.50  2002.73  2017.77  2019.97
                             2075.38  2077.07  2123.58  2161.66  2163.62
                             2178.53  2179.42  2189.33  2202.07  2204.49
                             2220.13  2238.59  2241.94  2626.57  4267.46
                             4289.95  4303.40  4308.61  4313.89  4331.35
                             4355.44  4366.75  4372.72  4376.19  4388.30
                             4400.60  4415.27  4436.35  4446.76  4453.98
                             4465.29  4506.40  4517.19  4518.19

 Zero-point correction=                           0.311429 (Hartree/Particle)
 Thermal correction to Energy=                    0.326562
 Thermal correction to Enthalpy=                  0.327506
 Thermal correction to Gibbs Free Energy=         0.268560
 Sum of electronic and zero-point Energies=           -694.642872
 Sum of electronic and thermal Energies=              -694.627739
 Sum of electronic and thermal Enthalpies=            -694.626795
 Sum of electronic and thermal Free Energies=         -694.685741

                     E (Thermal)             CV                S
                      KCal/Mol        Cal/Mol-Kelvin    Cal/Mol-Kelvin
 Total                  204.920             56.975            124.062
 Electronic               0.000              0.000              0.000
 Translational            0.889              2.981             41.960
 Rotational               0.889              2.981             32.180
 Vibrational            203.143             51.013             49.922
 Vibration     1          0.593              1.985              6.158
 Vibration     2          0.597              1.971              4.286
 Vibration     3          0.600              1.962              3.878
 Vibration     4          0.603              1.953              3.555
 Vibration     5          0.604              1.948              3.433
 Vibration     6          0.609              1.933              3.109
 Vibration     7          0.611              1.925              2.975
 Vibration     8          0.632              1.860              2.272
 Vibration     9          0.649              1.805              1.928
 Vibration    10          0.651              1.798              1.895
 Vibration    11          0.655              1.786              1.836
 Vibration    12          0.678              1.717              1.555
 Vibration    13          0.682              1.703              1.510
 Vibration    14          0.700              1.653              1.357
 Vibration    15          0.719              1.599              1.219
 Vibration    16          0.726              1.579              1.176
 Vibration    17          0.761              1.482              0.983
 Vibration    18          0.813              1.350              0.781
 Vibration    19          0.846              1.271              0.683
 Vibration    20          0.880              1.195              0.599
 Vibration    21          0.917              1.115              0.521
 Vibration    22          0.954              1.039              0.456
 Vibration    23          0.970              1.009              0.432

 Normal termination of Gaussian 16 at Sat Feb 24 00:12:35 2024.
