 Gaussian 16, Revision A.03,
 Gaussian 16:  EM64M-G16RevA.03 25-Dec-2016

 ---------------------
 # freq b3lyp/6-31g(d)
 ---------------------

 ---------
 good luck
 ---------
 Symbolic Z-matrix:
 Charge =  0 Multiplicity = 1

                         Standard orientation:
 ---------------------------------------------------------------------
 Center     Atomic      Atomic             Coordinates (Angstroms)
 Number     Number       Type             X           Y           Z
 ---------------------------------------------------------------------
      1          8           0        3.534404   -1.531219    0.077762
      2          6           0        2.592384   -0.772925   -0.039166
      3          6           0        2.545624    0.371090   -1.056846
      4          6           0        1.301078    1.238797   -0.780924
      5          6           0        0.034863    0.379127   -1.050077
      6          6           0       -1.281676    1.161217   -0.971133
      7          8           0       -1.555270    1.649561    0.337917
      8          6           0       -2.766227    2.373767    0.397933
      9          6           0        0.132940   -0.949144   -0.205582
     10          6           0       -1.148263   -1.419900    0.486342
     11          8           0       -2.077343   -1.817924   -0.515513
     12          6           0       -3.281835   -2.312302    0.029071
     13          6           0        1.320338   -0.837314    0.796627
     14          6           0        1.226850    0.470316    1.624762
     15          6           0        1.384234    1.701724    0.689960
     16          1           0        3.473818    0.950073   -0.975114
     17          1           0        2.533561   -0.060505   -2.067682
     18          1           0        1.293690    2.107844   -1.451119
     19          1           0        0.078625    0.086080   -2.108567
     20          1           0       -1.223458    2.012056   -1.672963
     21          1           0       -2.105116    0.511743   -1.299574
     22          1           0       -2.743207    3.257542   -0.259536
     23          1           0       -2.897037    2.703613    1.431757
     24          1           0       -3.627484    1.751394    0.107190
     25          1           0        0.377287   -1.761767   -0.902460
     26          1           0       -0.911658   -2.283051    1.132123
     27          1           0       -1.585273   -0.633748    1.115841
     28          1           0       -3.108043   -3.196371    0.663772
     29          1           0       -3.922547   -2.598710   -0.809232
     30          1           0       -3.802015   -1.552113    0.634387
     31          1           0        1.369286   -1.718290    1.444310
     32          1           0        1.995074    0.465367    2.405771
     33          1           0        0.256775    0.503274    2.130645
     34          1           0        2.358095    2.182882    0.849095
     35          1           0        0.613437    2.442634    0.904239
 ---------------------------------------------------------------------

 SCF Done:  E(RB3LYP) =  -694.954298406     A.U. after   14 cycles

 The electronic state is 1-A.
 Alpha  occ. eigenvalues --  -19.15433 -19.14930 -19.12684 -10.26158 -10.23277
 Alpha  occ. eigenvalues --  -10.22960 -10.22880 -10.22687 -10.19539 -10.19474
 Alpha  occ. eigenvalues --  -10.19131 -10.18853 -10.18460 -10.18286 -10.17522
 Alpha  occ. eigenvalues --   -1.03611  -1.03075  -1.02609  -0.85898  -0.77496
 Alpha  occ. eigenvalues --   -0.76826  -0.73167  -0.71161  -0.69008  -0.65523
 Alpha  occ. eigenvalues --   -0.62973  -0.60060  -0.58965  -0.55005  -0.51195
 Alpha  occ. eigenvalues --   -0.49940  -0.49471  -0.48007  -0.47046  -0.46547
 Alpha  occ. eigenvalues --   -0.46361  -0.45521  -0.43769  -0.43461  -0.41759
 Alpha  occ. eigenvalues --   -0.40227  -0.39985  -0.39831  -0.38396  -0.37825
 Alpha  occ. eigenvalues --   -0.37109  -0.36578  -0.36293  -0.35030  -0.33229
 Alpha  occ. eigenvalues --   -0.32732  -0.32110  -0.30095  -0.29573  -0.29227
 Alpha  occ. eigenvalues --   -0.26684  -0.24721  -0.22649
 Alpha virt. eigenvalues --   -0.00587   0.06496   0.07931   0.10399   0.11187
 Alpha virt. eigenvalues --    0.11865   0.12964   0.13012   0.13473   0.14473
 Alpha virt. eigenvalues --    0.14697   0.15415   0.16155   0.16649   0.17235

 Mulliken charges:
               1
     1  O   -0.459146
     2  C    0.451890
     3  C   -0.362664
     4  C   -0.106280
     5  C   -0.113690
     6  C   -0.031991
     7  O   -0.465945
     8  C   -0.192880
     9  C   -0.130746
    10  C   -0.023917
    11  O   -0.474465
    12  C   -0.191563
    13  C   -0.181124
    14  C   -0.286530
    15  C   -0.268383
    16  H    0.167126
    17  H    0.164382
    18  H    0.117490
    19  H    0.134313
    20  H    0.114631
    21  H    0.150297
    22  H    0.133191
    23  H    0.157929
    24  H    0.132918
    25  H    0.150174
    26  H    0.118358
    27  H    0.149430
    28  H    0.132329
    29  H    0.157105
    30  H    0.128816
    31  H    0.135151
    32  H    0.146115
    33  H    0.157479
    34  H    0.128913
    35  H    0.161289
 Sum of Mulliken charges =  -0.00000

 Dipole moment (field-independent basis, Debye):
    X=             -3.7670    Y=              2.1477    Z=             -0.0674  Tot=              4.3368
 Quadrupole moment (field-independent basis, Debye-Ang):
   XX=            -96.3887   YY=            -91.4999   ZZ=            -89.1192
   XY=              7.2693   XZ=             -2.7244   YZ=             -2.2368

  Exact polarizability: 145.947  -1.828 126.718  -0.998  -2.739 112.984
 Approx polarizability: 187.960  -8.238 176.891   0.393  -2.585 172.097

                      1                      2                      3
                      A                      A                      A
 Frequencies --     33.8442                57.2240                77.2575
 Red. masses --      3.8052                 3.4303                 3.7827
 Frc consts  --      0.0026                 0.0066                 0.0133
 IR Inten    --      0.7961                 0.4366                 0.6723

                      4                      5                      6
                      A                      A                      A
 Frequencies --     94.4132               102.1795               137.2237
 Red. masses --      2.9393                 2.5103                 3.2399
 Frc consts  --      0.0154                 0.0154                 0.0359
 IR Inten    --      4.1513                 2.8159                 4.9385

                      7                      8                      9
                      A                      A                      A
 Frequencies --    150.6289               181.1718               228.6193
 Red. masses --      1.8400                 2.8077                 1.5716
 Frc consts  --      0.0246                 0.0543                 0.0484
 IR Inten    --      3.6475                 0.4369                 2.3098

                     10                     11                     12
                      A                      A                      A
 Frequencies --    234.0878               251.3002               266.7501
 Red. masses --      1.7008                 1.8925                 3.1994
 Frc consts  --      0.0549                 0.0704                 0.1341
 IR Inten    --      1.6662                 7.0540                 3.2470

                     13                     14                     15
                      A                      A                      A
 Frequencies --    275.5044               297.3990               325.0636
 Red. masses --      2.8721                 2.2927                 2.7547
 Frc consts  --      0.1284                 0.1195                 0.1715
 IR Inten    --      1.6440                 0.1305                 0.2030

                     16                     17                     18
                      A                      A                      A
 Frequencies --    353.9340               397.4618               459.5298
 Red. masses --      3.9371                 2.2276                 4.2849
 Frc consts  --      0.2906                 0.2073                 0.5331
 IR Inten    --      5.3836                 0.8181                 7.6058

                     19                     20                     21
                      A                      A                      A
 Frequencies --    492.4004               510.8946               517.2811
 Red. masses --      3.8328                 3.0875                 4.5532
 Frc consts  --      0.5475                 0.4748                 0.7178
 IR Inten    --      3.0567                 2.2689                 2.4736

                     22                     23                     24
                      A                      A                      A
 Frequencies --    614.2091               636.1657               721.6862
 Red. masses --      2.7163                 4.5315                 2.9325
 Frc consts  --      0.6038                 1.0805                 0.8999
 IR Inten    --      0.6166                 0.7917                 1.3456

                     25                     26                     27
                      A                      A                      A
 Frequencies --    735.6635               766.5726               829.7340
 Red. masses --      3.8961                 3.2204                 1.7159
 Frc consts  --      1.2423                 1.1150                 0.6960
 IR Inten    --      1.0669                 4.0735                 4.4712

                     28                     29                     30
                      A                      A                      A
 Frequencies --    836.3063               859.8874               897.1275
 Red. masses --      2.1724                 2.6944                 2.3404
 Frc consts  --      0.8952                 1.1738                 1.1098
 IR Inten    --      3.1975                 0.6220                 2.8439

                     31                     32                     33
                      A                      A                      A
 Frequencies --    934.9227               956.5445               971.3020
 Red. masses --      2.5101                 2.6355                 1.8174
 Frc consts  --      1.2927                 1.4208                 1.0102
 IR Inten    --      4.1072                 0.1464                 1.6834

                     34                     35                     36
                      A                      A                      A
 Frequencies --    987.2864               988.7404              1041.2879
 Red. masses --      2.7776                 3.5726                 2.2452
 Frc consts  --      1.5952                 2.0578                 1.4344
 IR Inten    --     16.4070                34.0005                 1.9885

                     37                     38                     39
                      A                      A                      A
 Frequencies --   1050.3669              1065.0197              1088.2373
 Red. masses --      2.1142                 2.4613                 2.6634
 Frc consts  --      1.3743                 1.6449                 1.8584
 IR Inten    --      5.0185                 5.6248                 9.8134

                     40                     41                     42
                      A                      A                      A
 Frequencies --   1107.7194              1111.6037              1131.9709
 Red. masses --      2.2309                 1.8210                 2.4301
 Frc consts  --      1.6128                 1.3258                 1.8346
 IR Inten    --      0.7125                 5.1592                32.0429

                     43                     44                     45
                      A                      A                      A
 Frequencies --   1145.3302              1160.6706              1163.2942
 Red. masses --      1.5907                 3.7964                 2.7133
 Frc consts  --      1.2294                 3.0133                 2.1633
 IR Inten    --     75.2104               113.6113               125.1519

                     46                     47                     48
                      A                      A                      A
 Frequencies --   1189.8974              1192.7731              1196.8827
 Red. masses --      1.2630                 1.2759                 1.2493
 Frc consts  --      1.0536                 1.0695                 1.0544
 IR Inten    --      3.5842                 1.1264                 7.1258

                     49                     50                     51
                      A                      A                      A
 Frequencies --   1215.9038              1227.1390              1237.3195
 Red. masses --      1.5837                 1.5924                 1.6983
 Frc consts  --      1.3795                 1.4128                 1.5319
 IR Inten    --     11.5291                21.3822                27.8790

                     52                     53                     54
                      A                      A                      A
 Frequencies --   1253.0083              1264.5483              1279.0721
 Red. masses --      1.5114                 1.3354                 1.2049
 Frc consts  --      1.3981                 1.2581                 1.1615
 IR Inten    --     14.9401                 1.0399                 2.7345

                     55                     56                     57
                      A                      A                      A
 Frequencies --   1287.7726              1312.4727              1316.7990
 Red. masses --      1.2658                 1.4409                 1.2645
 Frc consts  --      1.2367                 1.4624                 1.2918
 IR Inten    --      6.5293                 0.1120                 4.2316

                     58                     59                     60
                      A                      A                      A
 Frequencies --   1341.7300              1352.6310              1354.4703
 Red. masses --      1.5102                 1.4695                 1.3389
 Frc consts  --      1.6019                 1.5841                 1.4472
 IR Inten    --      6.0885                 0.3105                 4.7129

                     61                     62                     63
                      A                      A                      A
 Frequencies --   1367.3114              1384.3214              1391.0252
 Red. masses --      1.4082                 1.4710                 1.3723
 Frc consts  --      1.5511                 1.6609                 1.5645
 IR Inten    --      5.4035                 2.9468                 2.3621

                     64                     65                     66
                      A                      A                      A
 Frequencies --   1397.6472              1404.0067              1443.3872
 Red. masses --      1.5435                 1.3442                 1.3563
 Frc consts  --      1.7765                 1.5612                 1.6649
 IR Inten    --     10.0166                 3.6925                 5.4822

                     67                     68                     69
                      A                      A                      A
 Frequencies --   1447.9080              1477.4079              1497.9303
 Red. masses --      1.2902                 1.0869                 1.1527
 Frc consts  --      1.5937                 1.3978                 1.5238
 IR Inten    --     40.3035                 9.2314                 6.1229

                     70                     71                     72
                      A                      A                      A
 Frequencies --   1503.8744              1513.5857              1514.3681
 Red. masses --      1.1635                 1.0485                 1.0485
 Frc consts  --      1.5504                 1.4152                 1.4166
 IR Inten    --      2.9404                 2.0793                 6.5012

                     73                     74                     75
                      A                      A                      A
 Frequencies --   1516.6511              1529.4435              1531.8944
 Red. masses --      1.0763                 1.0599                 1.0610
 Frc consts  --      1.4587                 1.4607                 1.4670
 IR Inten    --      3.7921                12.3388                12.7733

                     76                     77                     78
                      A                      A                      A
 Frequencies --   1537.0545              1552.3369              1560.4994
 Red. masses --      1.0885                 1.0810                 1.0974
 Frc consts  --      1.5152                 1.5348                 1.5744
 IR Inten    --      7.0414                 1.0756                 5.9646

                     79                     80                     81
                      A                      A                      A
 Frequencies --   1826.4275              2969.3725              2976.5172
 Red. masses --     11.8800                 1.0672                 1.0630
 Frc consts  --     23.3491                 5.5440                 5.5489
 IR Inten    --    229.8835                52.1033                36.6498

                     82                     83                     84
                      A                      A                      A
 Frequencies --   2989.8020              2993.4602              3018.2654
 Red. masses --      1.0422                 1.0389                 1.0849
 Frc consts  --      5.4887                 5.4850                 5.8229
 IR Inten    --     81.0952                86.4976                13.3346

                     85                     86                     87
                      A                      A                      A
 Frequencies --   3030.8760              3036.6102              3038.0756
 Red. masses --      1.1046                 1.1034                 1.0811
 Frc consts  --      5.9785                 5.9946                 5.8792
 IR Inten    --     82.7187                49.4124                10.9006

                     88                     89                     90
                      A                      A                      A
 Frequencies --   3039.6515              3043.1402              3050.1257
 Red. masses --      1.0714                 1.0726                 1.0923
 Frc consts  --      5.8325                 5.8525                 5.9875
 IR Inten    --     24.5800                27.3314                28.8445

                     91                     92                     93
                      A                      A                      A
 Frequencies --   3055.1272              3063.5235              3068.5358
 Red. masses --      1.0825                 1.0831                 1.0726
 Frc consts  --      5.9530                 5.9891                 5.9504
 IR Inten    --     72.5845                 8.8848                50.1391

                     94                     95                     96
                      A                      A                      A
 Frequencies --   3087.4093              3092.0253              3107.1025
 Red. masses --      1.0991                 1.0857                 1.1037
 Frc consts  --      6.1724                 6.1159                 6.2781
 IR Inten    --     18.6297                30.7551                26.6911

                     97                     98                     99
                      A                      A                      A
 Frequencies --   3134.0268              3137.1906              3149.5254
 Red. masses --      1.0966                 1.0970                 1.0926
 Frc consts  --      6.3459                 6.3612                 6.3858
 IR Inten    --     32.9738                29.1121                16.0962

 - Thermochemistry -
 -------------------
 Temperature   298.150 Kelvin.  Pressure   1.00000 Atm.
 Atom     1 has atomic number  8 and mass  15.99491

 Molecular mass:   212.14124 amu.
 Principal axes and moments of inertia in atomic units:
                           1         2         3
     Eigenvalues --  2156.206203766.783394929.33679
           X            0.99959   0.02788  -0.00573
           Y           -0.02795   0.99954  -0.01165
           Z            0.00541   0.01181   0.99992
 This molecule is an asymmetric top.
 Rotational symmetry number  1.
 Warning -- assumption of classical behavior for rotation
           may cause significant error
 Rotational temperatures (Kelvin)      0.04017     0.02299     0.01757
 Rotational constants (GHZ):           0.83700     0.47912     0.36612
 Zero-point vibrational energy     817920.8 (Joules/Mol)
                                  195.48777 (Kcal/Mol)
 Warning -- explicit consideration of  22 degrees of freedom as
           vibrations may cause significant error
 Vibrational temperatures:     48.69    82.33   111.16   135.84   147.01
          (Kelvin)            197.43   216.72   260.67   328.93   336.80
                              361.56   383.79   396.39   427.89   467.69
                              509.23   571.86   661.16   708.45   735.06
                              744.25   883.71   915.30  1038.35  1058.46
                             1102.93  1193.80  1203.26  1237.19  1290.77
                             1345.15  1376.25  1397.49  1420.48  1422.58
                             1498.18  1511.24  1532.33  1565.73  1593.76
                             1599.35  1628.65  1647.87  1669.95  1673.72
                             1712.00  1716.13  1722.05  1749.41  1765.58
                             1780.23  1802.80  1819.40  1840.30  1852.82
                             1888.36  1894.58  1930.45  1946.13  1948.78
                             1967.26  1991.73  2001.38  2010.90  2020.05
                             2076.71  2083.22  2125.66  2155.19  2163.74
                             2177.71  2178.84  2182.12  2200.53  2204.05
                             2211.48  2233.47  2245.21  2627.82  4272.26
                             4282.54  4301.66  4306.92  4342.61  4360.75
                             4369.00  4371.11  4373.38  4378.40  4388.45
                             4395.65  4407.73  4414.94  4442.09  4448.73
                             4470.43  4509.17  4513.72  4531.46

 Zero-point correction=                           0.311530 (Hartree/Particle)
 Thermal correction to Energy=                    0.326622
 Thermal correction to Enthalpy=                  0.327566
 Thermal correction to Gibbs Free Energy=         0.269013
 Sum of electronic and zero-point Energies=           -694.642769
 Sum of electronic and thermal Energies=              -694.627677
 Sum of electronic and thermal Enthalpies=            -694.626733
 Sum of electronic and thermal Free Energies=         -694.685285

                     E (Thermal)             CV                S
                      KCal/Mol        Cal/Mol-Kelvin    Cal/Mol-Kelvin
 Total                  204.958             56.994            123.235
 Electronic               0.000              0.000              0.000
 Translational            0.889              2.981             41.960
 Rotational               0.889              2.981             32.060
 Vibrational            203.181             51.032             49.215
 Vibration     1          0.594              1.983              5.590
 Vibration     2          0.596              1.975              4.551
 Vibration     3          0.599              1.964              3.959
 Vibration     4          0.603              1.953              3.566
 Vibration     5          0.604              1.947              3.412
 Vibration     6          0.614              1.916              2.842
 Vibration     7          0.618              1.902              2.664
 Vibration     8          0.630              1.865              2.316
 Vibration     9          0.651              1.797              1.890
 Vibration    10          0.654              1.789              1.847
 Vibration    11          0.663              1.761              1.721
 Vibration    12          0.672              1.734              1.617
 Vibration    13          0.677              1.719              1.561
 Vibration    14          0.691              1.679              1.431
 Vibration    15          0.709              1.625              1.285
 Vibration    16          0.730              1.567              1.149
 Vibration    17          0.764              1.476              0.972
 Vibration    18          0.817              1.340              0.767
 Vibration    19          0.848              1.267              0.677
 Vibration    20          0.866              1.226              0.631
 Vibration    21          0.872              1.212              0.616
 Vibration    22          0.974              1.002              0.426

 Normal termination of Gaussian 16 at Sat Feb 24 00:17:48 2024.
