 Gaussian 16, Revision A.03,
 Gaussian 16:  EM64M-G16RevA.03 25-Dec-2016

 ---------------------
 # freq b3lyp/6-31g(d)
 ---------------------

 ---------
 good luck
 ---------
 Symbolic Z-matrix:
 Charge =  0 Multiplicity = 1

                         Standard orientation:
 ---------------------------------------------------------------------
 Center     Atomic      Atomic             Coordinates (Angstroms)
 Number     Number       Type             X           Y           Z
 ---------------------------------------------------------------------
      1          8           0       -2.580089   -0.217941   -0.000000
      2          6           0       -1.390389   -0.470636   -0.000000
      3          6           0       -0.600492   -0.643223    1.297183
      4          6           0        0.837444   -0.090630    1.190524
      5          6           0        1.552771   -0.758045    0.000000
      6          6           0        0.837444    1.406456    0.781661
      7          6           0        0.837444    1.406456   -0.781661
      8          6           0        0.837444   -0.090630   -1.190524
      9          6           0       -0.600492   -0.643223   -1.297183
     10          1           0       -0.561828   -1.721057    1.519498
     11          1           0       -1.169314   -0.169179    2.104030
     12          1           0        1.356300   -0.253766    2.141646
     13          1           0        1.469844   -1.852172    0.000000
     14          1           0        2.620509   -0.503921    0.000000
     15          1           0        1.737352    1.900971    1.163444
     16          1           0       -0.020849    1.943263    1.200414
     17          1           0        1.737352    1.900971   -1.163444
     18          1           0       -0.020849    1.943263   -1.200414
     19          1           0        1.356300   -0.253766   -2.141646
     20          1           0       -0.561828   -1.721057   -1.519498
     21          1           0       -1.169314   -0.169179   -2.104030
 ---------------------------------------------------------------------

 SCF Done:  E(RB3LYP) =  -387.304256324     A.U. after   13 cycles

 The electronic state is 1-A'.
 Alpha  occ. eigenvalues --  -19.13155 -10.26881 -10.19574 -10.19572 -10.18825
 Alpha  occ. eigenvalues --  -10.18824 -10.18550 -10.18403 -10.18386  -1.03085
 Alpha  occ. eigenvalues --   -0.86106  -0.76007  -0.74730  -0.70443  -0.65259
 Alpha  occ. eigenvalues --   -0.57511  -0.56082  -0.52759  -0.48419  -0.46753
 Alpha  occ. eigenvalues --   -0.45556  -0.43325  -0.42167  -0.41308  -0.40455
 Alpha  occ. eigenvalues --   -0.39506  -0.35310  -0.34268  -0.34017  -0.32489
 Alpha  occ. eigenvalues --   -0.32193  -0.31709  -0.31486  -0.23420
 Alpha virt. eigenvalues --   -0.01262   0.07572   0.10121   0.12133   0.12680
 Alpha virt. eigenvalues --    0.13678   0.15750   0.15770   0.16836   0.17175
 Alpha virt. eigenvalues --    0.17723   0.18438   0.19139   0.19495   0.21417

 Mulliken charges:
               1
     1  O   -0.448709
     2  C    0.445424
     3  C   -0.348965
     4  C   -0.100096
     5  C   -0.273491
     6  C   -0.281056
     7  C   -0.281056
     8  C   -0.100096
     9  C   -0.348965
    10  H    0.157204
    11  H    0.163218
    12  H    0.126213
    13  H    0.131359
    14  H    0.137210
    15  H    0.140516
    16  H    0.147069
    17  H    0.140516
    18  H    0.147069
    19  H    0.126213
    20  H    0.157204
    21  H    0.163218
 Sum of Mulliken charges =  -0.00000

 Dipole moment (field-independent basis, Debye):
    X=              3.0195    Y=             -0.4451    Z=             -0.0000  Tot=              3.0522
 Quadrupole moment (field-independent basis, Debye-Ang):
   XX=            -63.9528   YY=            -52.8528   ZZ=            -52.8618
   XY=              0.3054   XZ=             -0.0000   YZ=              0.0000

  Exact polarizability:  83.620   0.956  72.763  -0.000   0.000  77.600
 Approx polarizability: 124.599  -4.631 105.195  -0.000   0.000 107.177

                      1                      2                      3
                     A'                     A"                     A"
 Frequencies --     74.8129               119.9290               323.0339
 Red. masses --      4.6978                 1.9762                 1.8535
 Frc consts  --      0.0155                 0.0167                 0.1140
 IR Inten    --      3.1086                 0.2352                 0.6888

                      4                      5                      6
                     A'                     A'                     A"
 Frequencies --    344.3581               384.2812               423.8524
 Red. masses --      2.2381                 2.9616                 4.0955
 Frc consts  --      0.1564                 0.2577                 0.4335
 IR Inten    --      0.7608                 0.4402                 5.6057

                      7                      8                      9
                     A'                     A"                     A'
 Frequencies --    467.1931               483.0897               587.1318
 Red. masses --      1.6853                 3.9684                 3.6159
 Frc consts  --      0.2167                 0.5457                 0.7344
 IR Inten    --      1.0607                 5.8167                 0.6988

                     10                     11                     12
                     A"                     A'                     A'
 Frequencies --    718.2357               722.8416               793.6219
 Red. masses --      3.9073                 4.2152                 1.3675
 Frc consts  --      1.1876                 1.2976                 0.5075
 IR Inten    --      2.2701                 0.7862                 0.3801

                     13                     14                     15
                     A"                     A'                     A"
 Frequencies --    821.2922               832.2344               846.5896
 Red. masses --      2.4153                 3.2360                 1.7491
 Frc consts  --      0.9599                 1.3205                 0.7386
 IR Inten    --      3.4621                 0.6356                 0.1205

                     16                     17                     18
                     A'                     A'                     A'
 Frequencies --    882.2858               885.9792               960.0955
 Red. masses --      2.3743                 2.9066                 1.9406
 Frc consts  --      1.0889                 1.3442                 1.0539
 IR Inten    --      0.1347                 1.8765                 2.1900

                     19                     20                     21
                     A"                     A"                     A'
 Frequencies --    980.3330               988.9208              1010.9987
 Red. masses --      1.9623                 2.0421                 1.9398
 Frc consts  --      1.1111                 1.1766                 1.1682
 IR Inten    --      2.9486                 0.3471                 2.8502

                     22                     23                     24
                     A'                     A"                     A"
 Frequencies --   1036.1515              1053.1562              1099.1914
 Red. masses --      2.4791                 1.3339                 1.3167
 Frc consts  --      1.5681                 0.8717                 0.9373
 IR Inten    --      1.3687                 1.0567                19.5109

                     25                     26                     27
                     A'                     A"                     A'
 Frequencies --   1111.9362              1180.3486              1189.1094
 Red. masses --      1.7294                 1.1020                 1.1496
 Frc consts  --      1.2598                 0.9046                 0.9577
 IR Inten    --      1.7597                 1.1946                 1.2679

                     28                     29                     30
                     A'                     A"                     A"
 Frequencies --   1225.0033              1226.9403              1239.8919
 Red. masses --      1.2172                 1.6702                 2.0973
 Frc consts  --      1.0761                 1.4813                 1.8996
 IR Inten    --      1.8551                 6.3286                28.2918

                     31                     32                     33
                     A'                     A"                     A"
 Frequencies --   1279.8210              1292.6525              1325.0150
 Red. masses --      1.4707                 1.3458                 1.4536
 Frc consts  --      1.4193                 1.3250                 1.5036
 IR Inten    --      1.9656                 0.3863                 0.5989

                     34                     35                     36
                     A"                     A'                     A"
 Frequencies --   1329.4324              1334.5607              1366.9440
 Red. masses --      1.4827                 1.8408                 1.4639
 Frc consts  --      1.5440                 1.9317                 1.6117
 IR Inten    --      2.1513                 1.9841                 0.2039

                     37                     38                     39
                     A'                     A'                     A"
 Frequencies --   1370.2952              1390.1697              1393.6851
 Red. masses --      1.4636                 1.4458                 1.6192
 Frc consts  --      1.6191                 1.6462                 1.8530
 IR Inten    --      0.2114                 3.5572                13.6933

                     40                     41                     42
                     A"                     A'                     A"
 Frequencies --   1485.2852              1491.2333              1520.8390
 Red. masses --      1.0871                 1.0851                 1.0794
 Frc consts  --      1.4130                 1.4216                 1.4709
 IR Inten    --      8.1995                 5.0301                 1.0775

                     43                     44                     45
                     A'                     A'                     A'
 Frequencies --   1523.3057              1545.9724              1815.2522
 Red. masses --      1.0956                 1.0977                11.4428
 Frc consts  --      1.4979                 1.5457                22.2155
 IR Inten    --      6.6511                 1.3820               174.1458

                     46                     47                     48
                     A"                     A'                     A'
 Frequencies --   3019.8174              3023.7659              3045.3144
 Red. masses --      1.0681                 1.0687                 1.0609
 Frc consts  --      5.7388                 5.7570                 5.7966
 IR Inten    --      2.2747                26.0922                26.0601

                     49                     50                     51
                     A"                     A'                     A"
 Frequencies --   3056.7755              3064.9322              3073.9486
 Red. masses --      1.0631                 1.0668                 1.0844
 Frc consts  --      5.8524                 5.9046                 6.0370
 IR Inten    --      5.9852                51.0006                80.0519

                     52                     53                     54
                     A'                     A'                     A"
 Frequencies --   3081.1763              3087.1847              3091.2555
 Red. masses --      1.0814                 1.1056                 1.1060
 Frc consts  --      6.0490                 6.2085                 6.2270
 IR Inten    --     22.6757                31.3591                 2.6560

                     55                     56                     57
                     A"                     A'                     A'
 Frequencies --   3103.8895              3104.8834              3112.3175
 Red. masses --      1.0936                 1.0946                 1.1053
 Frc consts  --      6.2075                 6.2171                 6.3079
 IR Inten    --     23.1374                10.2862                59.6591

 - Thermochemistry -
 -------------------
 Temperature   298.150 Kelvin.  Pressure   1.00000 Atm.
 Atom     1 has atomic number  8 and mass  15.99491

 Molecular mass:   124.08882 amu.
 Principal axes and moments of inertia in atomic units:
                           1         2         3
     Eigenvalues --   705.376511126.735821260.69991
           X            0.95841   0.00000  -0.28541
           Y            0.28541   0.00000   0.95841
           Z           -0.00000   1.00000  -0.00000
 This molecule is an asymmetric top.
 Rotational symmetry number  1.
 Warning -- assumption of classical behavior for rotation
           may cause significant error
 Rotational temperatures (Kelvin)      0.12279     0.07687     0.06870
 Rotational constants (GHZ):           2.55855     1.60174     1.43154
 Zero-point vibrational energy     492517.9 (Joules/Mol)
                                  117.71460 (Kcal/Mol)
 Warning -- explicit consideration of   9 degrees of freedom as
           vibrations may cause significant error
 Vibrational temperatures:    107.64   172.55   464.77   495.45   552.89
          (Kelvin)            609.83   672.19   695.06   844.75  1033.38
                             1040.01  1141.84  1181.66  1197.40  1218.05
                             1269.41  1274.73  1381.36  1410.48  1422.84
                             1454.60  1490.79  1515.26  1581.49  1599.83
                             1698.26  1710.86  1762.51  1765.29  1783.93
                             1841.38  1859.84  1906.40  1912.76  1920.14
                             1966.73  1971.55  2000.14  2005.20  2136.99
                             2145.55  2188.15  2191.70  2224.31  2611.74
                             4344.84  4350.52  4381.53  4398.02  4409.75
                             4422.73  4433.13  4441.77  4447.63  4465.80
                             4467.23  4477.93

 Zero-point correction=                           0.187590 (Hartree/Particle)
 Thermal correction to Energy=                    0.194999
 Thermal correction to Enthalpy=                  0.195943
 Thermal correction to Gibbs Free Energy=         0.155580
 Sum of electronic and zero-point Energies=           -387.116666
 Sum of electronic and thermal Energies=              -387.109257
 Sum of electronic and thermal Enthalpies=            -387.108313
 Sum of electronic and thermal Free Energies=         -387.148676

                     E (Thermal)             CV                S
                      KCal/Mol        Cal/Mol-Kelvin    Cal/Mol-Kelvin
 Total                  122.364             30.073             84.951
 Electronic               0.000              0.000              0.000
 Translational            0.889              2.981             40.361
 Rotational               0.889              2.981             28.396
 Vibrational            120.586             24.111             16.194
 Vibration     1          0.599              1.966              4.023
 Vibration     2          0.609              1.933              3.102
 Vibration     3          0.708              1.629              1.295
 Vibration     4          0.723              1.587              1.192
 Vibration     5          0.753              1.504              1.022
 Vibration     6          0.786              1.418              0.879
 Vibration     7          0.824              1.323              0.745
 Vibration     8          0.839              1.288              0.702
 Vibration     9          0.944              1.059              0.472

 Normal termination of Gaussian 16 at Wed Feb 21 18:24:28 2024.
