 Gaussian 16, Revision A.03,
 Gaussian 16:  EM64M-G16RevA.03 25-Dec-2016

 ---------------------
 # freq b3lyp/6-31g(d)
 ---------------------

 ---------
 good luck
 ---------
 Symbolic Z-matrix:
 Charge =  0 Multiplicity = 1

                         Standard orientation:
 ---------------------------------------------------------------------
 Center     Atomic      Atomic             Coordinates (Angstroms)
 Number     Number       Type             X           Y           Z
 ---------------------------------------------------------------------
      1          8           0       -0.117644    2.215170   -0.362534
      2          6           0       -0.427847    1.124781    0.081103
      3          6           0        0.587581   -0.007560    0.276518
      4          6           0        1.994841    0.400967   -0.182642
      5          6           0        3.098196   -0.581827    0.223806
      6          6           0        0.054860   -1.296556   -0.400607
      7          6           0       -1.365599   -1.659535    0.054942
      8          6           0       -2.346583   -0.508223   -0.200059
      9          6           0       -1.863729    0.793523    0.471709
     10          1           0        0.610970   -0.203254    1.363249
     11          1           0        2.215396    1.392554    0.227157
     12          1           0        1.989560    0.529063   -1.273069
     13          1           0        3.125451   -0.722961    1.311935
     14          1           0        4.081011   -0.208055   -0.084496
     15          1           0        2.966790   -1.568421   -0.235055
     16          1           0        0.062968   -1.150073   -1.490932
     17          1           0        0.738843   -2.127485   -0.193475
     18          1           0       -1.354821   -1.900253    1.128280
     19          1           0       -1.703736   -2.565148   -0.464007
     20          1           0       -2.438479   -0.340842   -1.282228
     21          1           0       -3.349371   -0.763157    0.163502
     22          1           0       -1.896844    0.664985    1.564427
     23          1           0       -2.496906    1.648257    0.216357
 ---------------------------------------------------------------------

 SCF Done:  E(RB3LYP) =  -388.519316228     A.U. after   13 cycles

 The electronic state is 1-A.
 Alpha  occ. eigenvalues --  -19.13304 -10.26614 -10.19415 -10.19348 -10.19114
 Alpha  occ. eigenvalues --  -10.19007 -10.18950 -10.17725 -10.17408  -1.03160
 Alpha  occ. eigenvalues --   -0.83398  -0.78299  -0.73501  -0.71146  -0.63924
 Alpha  occ. eigenvalues --   -0.59257  -0.58244  -0.52689  -0.47228  -0.46115
 Alpha  occ. eigenvalues --   -0.45178  -0.43920  -0.42710  -0.41847  -0.40222
 Alpha  occ. eigenvalues --   -0.39668  -0.36531  -0.35951  -0.35779  -0.34648
 Alpha  occ. eigenvalues --   -0.33401  -0.32881  -0.32053  -0.31087  -0.23397
 Alpha virt. eigenvalues --   -0.01145   0.08976   0.10050   0.10609   0.13063
 Alpha virt. eigenvalues --    0.14073   0.14548   0.15377   0.15990   0.16834
 Alpha virt. eigenvalues --    0.17601   0.18092   0.18503   0.18793   0.19685

 Mulliken charges:
               1
     1  O   -0.450153
     2  C    0.446271
     3  C   -0.167164
     4  C   -0.245244
     5  C   -0.454003
     6  C   -0.271488
     7  C   -0.266339
     8  C   -0.268399
     9  C   -0.340639
    10  H    0.136287
    11  H    0.153619
    12  H    0.139803
    13  H    0.139353
    14  H    0.147552
    15  H    0.143455
    16  H    0.139446
    17  H    0.145038
    18  H    0.132478
    19  H    0.139751
    20  H    0.144819
    21  H    0.142579
    22  H    0.151107
    23  H    0.161873
 Sum of Mulliken charges =  -0.00000

 Dipole moment (field-independent basis, Debye):
    X=             -0.7373    Y=             -2.6057    Z=              0.8668  Tot=              2.8434
 Quadrupole moment (field-independent basis, Debye-Ang):
   XX=            -54.0174   YY=            -63.3264   ZZ=            -55.1109
   XY=              0.0640   XZ=             -0.2591   YZ=              2.0726

  Exact polarizability:  94.001   1.392  84.665  -1.176  -1.714  70.010
 Approx polarizability: 112.533   4.289 124.503  -2.371  -7.239 110.059

                      1                      2                      3
                      A                      A                      A
 Frequencies --     70.3534                84.8995               137.1609
 Red. masses --      2.4912                 2.6871                 2.2942
 Frc consts  --      0.0073                 0.0114                 0.0254
 IR Inten    --      0.2278                 1.6897                 0.4297

                      4                      5                      6
                      A                      A                      A
 Frequencies --    201.1245               225.7806               305.7815
 Red. masses --      2.9297                 1.2090                 1.8170
 Frc consts  --      0.0698                 0.0363                 0.1001
 IR Inten    --      2.7939                 0.0624                 0.4066

                      7                      8                      9
                      A                      A                      A
 Frequencies --    325.4920               338.4192               417.4963
 Red. masses --      3.5220                 2.2345                 3.0087
 Frc consts  --      0.2198                 0.1508                 0.3090
 IR Inten    --      4.0108                 1.4307                 0.4035

                     10                     11                     12
                      A                      A                      A
 Frequencies --    426.0088               511.9805               568.0215
 Red. masses --      2.9685                 1.9352                 3.9340
 Frc consts  --      0.3174                 0.2989                 0.7478
 IR Inten    --      0.3821                 1.8716                 6.2883

                     13                     14                     15
                      A                      A                      A
 Frequencies --    668.7096               744.9797               779.3086
 Red. masses --      2.9836                 2.0259                 1.3282
 Frc consts  --      0.7861                 0.6625                 0.4753
 IR Inten    --      1.9591                 4.4929                 2.2466

                     16                     17                     18
                      A                      A                      A
 Frequencies --    841.2358               862.2554               871.8010
 Red. masses --      2.0260                 2.1875                 2.0165
 Frc consts  --      0.8448                 0.9582                 0.9030
 IR Inten    --      9.0623                 1.0972                 2.5025

                     19                     20                     21
                      A                      A                      A
 Frequencies --    911.5476               946.7747               990.0303
 Red. masses --      1.3907                 2.0581                 1.8239
 Frc consts  --      0.6808                 1.0870                 1.0533
 IR Inten    --      1.3625                 1.0233                 1.5755

                     22                     23                     24
                      A                      A                      A
 Frequencies --   1010.8998              1047.2050              1078.2711
 Red. masses --      1.6115                 2.0729                 1.3872
 Frc consts  --      0.9703                 1.3393                 0.9503
 IR Inten    --      8.5004                 0.3596                 4.4183

                     25                     26                     27
                      A                      A                      A
 Frequencies --   1085.3538              1100.2189              1148.2853
 Red. masses --      1.5669                 2.4628                 1.6750
 Frc consts  --      1.0875                 1.7565                 1.3013
 IR Inten    --      0.3447                 6.3740                18.2184

                     28                     29                     30
                      A                      A                      A
 Frequencies --   1158.4901              1174.7475              1242.6349
 Red. masses --      2.1283                 2.1582                 1.5011
 Frc consts  --      1.6829                 1.7548                 1.3657
 IR Inten    --     16.2322                 6.6666                13.1446

                     31                     32                     33
                      A                      A                      A
 Frequencies --   1271.1869              1291.4188              1306.0275
 Red. masses --      1.3916                 1.3075                 1.2492
 Frc consts  --      1.3249                 1.2848                 1.2554
 IR Inten    --      0.2284                 1.6696                 0.5014

                     34                     35                     36
                      A                      A                      A
 Frequencies --   1334.2506              1347.5110              1360.0891
 Red. masses --      1.3426                 1.2809                 1.3283
 Frc consts  --      1.4083                 1.3704                 1.4477
 IR Inten    --      4.1412                 2.6749                 2.4747

                     37                     38                     39
                      A                      A                      A
 Frequencies --   1384.7815              1388.1503              1400.0427
 Red. masses --      1.4014                 1.4435                 1.4851
 Frc consts  --      1.5834                 1.6389                 1.7150
 IR Inten    --      1.3574                 7.4688                 1.2491

                     40                     41                     42
                      A                      A                      A
 Frequencies --   1413.5783              1443.7626              1498.0123
 Red. masses --      1.6713                 1.2486                 1.0912
 Frc consts  --      1.9676                 1.5334                 1.4427
 IR Inten    --     10.0600                 2.7064                 5.8538

                     43                     44                     45
                      A                      A                      A
 Frequencies --   1513.9314              1518.7470              1519.0450
 Red. masses --      1.0652                 1.0885                 1.0865
 Frc consts  --      1.4385                 1.4793                 1.4771
 IR Inten    --      3.0113                 3.8247                 4.7831

                     46                     47                     48
                      A                      A                      A
 Frequencies --   1531.0220              1534.3564              1538.8728
 Red. masses --      1.0563                 1.0871                 1.0585
 Frc consts  --      1.4588                 1.5080                 1.4768
 IR Inten    --      5.0522                 0.4581                 5.6617

                     49                     50                     51
                      A                      A                      A
 Frequencies --   1808.0146              2977.3030              3022.7952
 Red. masses --     11.4838                 1.0803                 1.0702
 Frc consts  --     22.1176                 5.6419                 5.7613
 IR Inten    --    158.4752                10.2846                13.4003

                     52                     53                     54
                      A                      A                      A
 Frequencies --   3024.0204              3029.3363              3038.4747
 Red. masses --      1.0696                 1.0642                 1.0616
 Frc consts  --      5.7627                 5.7542                 5.7747
 IR Inten    --      7.0012                29.9319                34.9789

                     55                     56                     57
                      A                      A                      A
 Frequencies --   3042.6158              3052.0295              3076.6909
 Red. masses --      1.0387                 1.0649                 1.0948
 Frc consts  --      5.6657                 5.8445                 6.1057
 IR Inten    --     20.1001                23.5742                51.3413

                     58                     59                     60
                      A                      A                      A
 Frequencies --   3082.3562              3085.5297              3091.1192
 Red. masses --      1.0996                 1.1004                 1.0970
 Frc consts  --      6.1556                 6.1726                 6.1759
 IR Inten    --     39.3926                41.4909                13.5649

                     61                     62                     63
                      A                      A                      A
 Frequencies --   3108.7479              3117.2477              3117.6014
 Red. masses --      1.1015                 1.1003                 1.0957
 Frc consts  --      6.2718                 6.2997                 6.2743
 IR Inten    --     46.5677                45.4657                27.2572

 - Thermochemistry -
 -------------------
 Temperature   298.150 Kelvin.  Pressure   1.00000 Atm.
 Atom     1 has atomic number  8 and mass  15.99491

 Molecular mass:   126.10447 amu.
 Principal axes and moments of inertia in atomic units:
                           1         2         3
     Eigenvalues --   753.627331426.625612019.40271
           X            1.00000  -0.00308  -0.00008
           Y            0.00308   0.99995   0.00972
           Z            0.00005  -0.00972   0.99995
 This molecule is an asymmetric top.
 Rotational symmetry number  1.
 Warning -- assumption of classical behavior for rotation
           may cause significant error
 Rotational temperatures (Kelvin)      0.11493     0.06071     0.04289
 Rotational constants (GHZ):           2.39474     1.26504     0.89370
 Zero-point vibrational energy     547554.3 (Joules/Mol)
                                  130.86863 (Kcal/Mol)
 Warning -- explicit consideration of  12 degrees of freedom as
           vibrations may cause significant error
 Vibrational temperatures:    101.22   122.15   197.34   289.37   324.85
          (Kelvin)            439.95   468.31   486.91   600.68   612.93
                              736.63   817.26   962.12  1071.86  1121.25
                             1210.35  1240.59  1254.33  1311.51  1362.20
                             1424.43  1454.46  1506.69  1551.39  1561.58
                             1582.97  1652.13  1666.81  1690.20  1787.87
                             1828.95  1858.06  1879.08  1919.69  1938.77
                             1956.86  1992.39  1997.24  2014.35  2033.82
                             2077.25  2155.31  2178.21  2185.14  2185.57
                             2202.80  2207.60  2214.09  2601.33  4283.67
                             4349.13  4350.89  4358.54  4371.69  4377.65
                             4391.19  4426.67  4434.82  4439.39  4447.43
                             4472.79  4485.02  4485.53

 Zero-point correction=                           0.208552 (Hartree/Particle)
 Thermal correction to Energy=                    0.217817
 Thermal correction to Enthalpy=                  0.218761
 Thermal correction to Gibbs Free Energy=         0.174242
 Sum of electronic and zero-point Energies=           -388.310764
 Sum of electronic and thermal Energies=              -388.301499
 Sum of electronic and thermal Enthalpies=            -388.300555
 Sum of electronic and thermal Free Energies=         -388.345074

                     E (Thermal)             CV                S
                      KCal/Mol        Cal/Mol-Kelvin    Cal/Mol-Kelvin
 Total                  136.682             35.126             93.697
 Electronic               0.000              0.000              0.000
 Translational            0.889              2.981             40.409
 Rotational               0.889              2.981             29.164
 Vibrational            134.905             29.164             24.124
 Vibration     1          0.598              1.968              4.143
 Vibration     2          0.601              1.960              3.774
 Vibration     3          0.614              1.916              2.843
 Vibration     4          0.638              1.838              2.123
 Vibration     5          0.650              1.802              1.912
 Vibration     6          0.696              1.663              1.385
 Vibration     7          0.710              1.625              1.282
 Vibration     8          0.719              1.599              1.220
 Vibration     9          0.781              1.432              0.901
 Vibration    10          0.788              1.414              0.872
 Vibration    11          0.867              1.223              0.629
 Vibration    12          0.924              1.100              0.508

 Normal termination of Gaussian 16 at Wed Feb 21 18:59:34 2024.
