 Gaussian 16, Revision A.03,
 Gaussian 16:  EM64M-G16RevA.03 25-Dec-2016

 ---------------------
 # freq b3lyp/6-31g(d)
 ---------------------

 ---------
 good luck
 ---------
 Symbolic Z-matrix:
 Charge =  0 Multiplicity = 1

                         Standard orientation:
 ---------------------------------------------------------------------
 Center     Atomic      Atomic             Coordinates (Angstroms)
 Number     Number       Type             X           Y           Z
 ---------------------------------------------------------------------
      1          8           0       -0.618191    2.003023    0.161515
      2          6           0        0.088330    1.067821   -0.169098
      3          6           0       -0.478007   -0.267781   -0.664262
      4          6           0       -2.015717   -0.328813   -0.619801
      5          6           0       -2.639773   -0.396540    0.780139
      6          6           0        0.229209   -1.451280    0.042024
      7          6           0        1.757941   -1.361857   -0.059622
      8          6           0        2.272442   -0.042751    0.531211
      9          6           0        1.610729    1.170845   -0.150666
     10          1           0       -0.174782   -0.318233   -1.725025
     11          1           0       -2.336835   -1.202412   -1.203442
     12          1           0       -2.404645    0.555317   -1.137276
     13          1           0       -3.733228   -0.395509    0.706849
     14          1           0       -2.351667   -1.307641    1.317022
     15          1           0       -2.344429    0.467684    1.381759
     16          1           0       -0.056612   -1.469059    1.102025
     17          1           0       -0.131663   -2.392123   -0.393153
     18          1           0        2.218158   -2.212157    0.458917
     19          1           0        2.062807   -1.435673   -1.114068
     20          1           0        2.050619   -0.016840    1.607235
     21          1           0        3.362626    0.028413    0.435429
     22          1           0        1.950201    1.220780   -1.196975
     23          1           0        1.884062    2.115401    0.329030
 ---------------------------------------------------------------------

 SCF Done:  E(RB3LYP) =  -388.518415334     A.U. after   13 cycles

 The electronic state is 1-A.
 Alpha  occ. eigenvalues --  -19.13359 -10.26723 -10.19481 -10.19343 -10.19065
 Alpha  occ. eigenvalues --  -10.18998 -10.18988 -10.17867 -10.16578  -1.03212
 Alpha  occ. eigenvalues --   -0.83390  -0.78124  -0.73436  -0.70957  -0.63818
 Alpha  occ. eigenvalues --   -0.59351  -0.58526  -0.51837  -0.46848  -0.46719
 Alpha  occ. eigenvalues --   -0.44776  -0.44541  -0.43468  -0.40365  -0.39716
 Alpha  occ. eigenvalues --   -0.39350  -0.37478  -0.36661  -0.35225  -0.33926
 Alpha  occ. eigenvalues --   -0.33219  -0.32706  -0.32057  -0.31095  -0.23379
 Alpha virt. eigenvalues --   -0.01273   0.08838   0.10107   0.10646   0.13212
 Alpha virt. eigenvalues --    0.14665   0.15071   0.15896   0.16266   0.16930
 Alpha virt. eigenvalues --    0.17531   0.18138   0.18621   0.18873   0.19685

 Mulliken charges:
               1
     1  O   -0.453706
     2  C    0.451975
     3  C   -0.170277
     4  C   -0.246588
     5  C   -0.455623
     6  C   -0.269672
     7  C   -0.266677
     8  C   -0.267927
     9  C   -0.342389
    10  H    0.140491
    11  H    0.124594
    12  H    0.149868
    13  H    0.141771
    14  H    0.137044
    15  H    0.169331
    16  H    0.145124
    17  H    0.139354
    18  H    0.139454
    19  H    0.131752
    20  H    0.143955
    21  H    0.142239
    22  H    0.153404
    23  H    0.162504
 Sum of Mulliken charges =  -0.00000

 Dipole moment (field-independent basis, Debye):
    X=              1.6849    Y=             -2.1812    Z=             -0.6982  Tot=              2.8432
 Quadrupole moment (field-independent basis, Debye-Ang):
   XX=            -55.2031   YY=            -61.4557   ZZ=            -55.0042
   XY=              2.7185   XZ=              0.4310   YZ=             -1.0016

  Exact polarizability:  93.692  -1.577  82.869  -0.340   1.641  70.812
 Approx polarizability: 117.690  -7.843 120.924  -3.222   5.186 108.051

                      1                      2                      3
                      A                      A                      A
 Frequencies --     73.5699               107.7741               139.8056
 Red. masses --      3.6613                 2.0630                 2.5807
 Frc consts  --      0.0117                 0.0141                 0.0297
 IR Inten    --      1.4432                 0.6549                 0.9197

                      4                      5                      6
                      A                      A                      A
 Frequencies --    208.8826               244.0076               303.0868
 Red. masses --      1.5542                 2.1392                 1.9609
 Frc consts  --      0.0400                 0.0750                 0.1061
 IR Inten    --      1.9670                 0.1791                 2.2724

                      7                      8                      9
                      A                      A                      A
 Frequencies --    311.7965               351.0893               420.2760
 Red. masses --      1.8065                 3.2264                 2.7304
 Frc consts  --      0.1035                 0.2343                 0.2842
 IR Inten    --      0.1574                 1.8729                 1.4773

                     10                     11                     12
                      A                      A                      A
 Frequencies --    443.7574               498.8065               609.1243
 Red. masses --      2.9823                 2.4113                 3.1206
 Frc consts  --      0.3460                 0.3535                 0.6822
 IR Inten    --      2.0547                 3.5323                 3.3356

                     13                     14                     15
                      A                      A                      A
 Frequencies --    658.1155               724.5882               778.0579
 Red. masses --      2.8151                 2.1898                 1.3802
 Frc consts  --      0.7184                 0.6774                 0.4923
 IR Inten    --      1.8490                 5.4077                 1.9724

                     16                     17                     18
                      A                      A                      A
 Frequencies --    848.1202               856.4131               863.3978
 Red. masses --      1.6824                 2.1851                 2.4144
 Frc consts  --      0.7130                 0.9442                 1.0604
 IR Inten    --     12.2414                 2.6656                 0.3838

                     19                     20                     21
                      A                      A                      A
 Frequencies --    910.5692               942.7969               976.1625
 Red. masses --      1.4033                 2.2062                 2.3103
 Frc consts  --      0.6855                 1.1554                 1.2971
 IR Inten    --      2.1340                 2.0781                 1.1025

                     22                     23                     24
                      A                      A                      A
 Frequencies --   1018.2930              1046.4989              1079.5416
 Red. masses --      1.7152                 1.3949                 1.6994
 Frc consts  --      1.0479                 0.9001                 1.1668
 IR Inten    --      7.4476                 6.5510                 4.3519

                     25                     26                     27
                      A                      A                      A
 Frequencies --   1087.1683              1114.7677              1137.7044
 Red. masses --      1.3220                 2.2003                 2.0741
 Frc consts  --      0.9206                 1.6110                 1.5818
 IR Inten    --      4.8211                 3.8067                 6.0834

                     28                     29                     30
                      A                      A                      A
 Frequencies --   1149.1264              1179.8703              1240.3325
 Red. masses --      1.7441                 2.2223                 1.4799
 Frc consts  --      1.3570                 1.8228                 1.3414
 IR Inten    --     15.7701                10.3131                10.0769

                     31                     32                     33
                      A                      A                      A
 Frequencies --   1275.3602              1291.2739              1313.1856
 Red. masses --      1.3869                 1.2961                 1.1761
 Frc consts  --      1.3291                 1.2732                 1.1949
 IR Inten    --      1.3762                 0.9399                 1.8005

                     34                     35                     36
                      A                      A                      A
 Frequencies --   1329.5608              1359.5302              1374.6539
 Red. masses --      1.3527                 1.4118                 1.3464
 Frc consts  --      1.4089                 1.5374                 1.4991
 IR Inten    --      4.0075                 4.7469                 1.3913

                     37                     38                     39
                      A                      A                      A
 Frequencies --   1384.7162              1392.9053              1399.0758
 Red. masses --      1.4678                 1.5019                 1.4971
 Frc consts  --      1.6582                 1.7169                 1.7266
 IR Inten    --     14.3697                 3.5418                 1.7195

                     40                     41                     42
                      A                      A                      A
 Frequencies --   1410.1603              1440.4321              1495.8295
 Red. masses --      1.4533                 1.2749                 1.0887
 Frc consts  --      1.7027                 1.5585                 1.4353
 IR Inten    --      2.2233                 8.9107                 6.4616

                     43                     44                     45
                      A                      A                      A
 Frequencies --   1511.1076              1519.3541              1520.2617
 Red. masses --      1.0770                 1.0883                 1.0874
 Frc consts  --      1.4489                 1.4801                 1.4808
 IR Inten    --      3.6867                 4.5449                 5.6438

                     46                     47                     48
                      A                      A                      A
 Frequencies --   1533.0314              1535.2500              1542.7651
 Red. masses --      1.0595                 1.0779                 1.0539
 Frc consts  --      1.4671                 1.4968                 1.4779
 IR Inten    --      3.2307                 2.2779                 4.7554

                     49                     50                     51
                      A                      A                      A
 Frequencies --   1805.6480              2975.0840              3020.6024
 Red. masses --     11.3255                 1.0805                 1.0697
 Frc consts  --     21.7557                 5.6346                 5.7507
 IR Inten    --    155.1825                15.5173                 9.1334

                     52                     53                     54
                      A                      A                      A
 Frequencies --   3024.2402              3037.4014              3038.7856
 Red. masses --      1.0684                 1.0618                 1.0636
 Frc consts  --      5.7575                 5.7714                 5.7865
 IR Inten    --     21.9852                23.1997                33.6018

                     55                     56                     57
                      A                      A                      A
 Frequencies --   3040.4902              3055.0665              3074.7038
 Red. masses --      1.0636                 1.0389                 1.0962
 Frc consts  --      5.7933                 5.7128                 6.1060
 IR Inten    --     29.5732                30.1988                42.5717

                     58                     59                     60
                      A                      A                      A
 Frequencies --   3079.5069              3084.9160              3087.8900
 Red. masses --      1.0994                 1.1030                 1.0979
 Frc consts  --      6.1430                 6.1848                 6.1679
 IR Inten    --     33.8965                66.6276                10.4239

                     61                     62                     63
                      A                      A                      A
 Frequencies --   3113.1926              3115.7246              3141.7237
 Red. masses --      1.1008                 1.0943                 1.1013
 Frc consts  --      6.2862                 6.2587                 6.4045
 IR Inten    --     50.4168                20.0746                22.8149

 - Thermochemistry -
 -------------------
 Temperature   298.150 Kelvin.  Pressure   1.00000 Atm.
 Atom     1 has atomic number  8 and mass  15.99491

 Molecular mass:   126.10447 amu.
 Principal axes and moments of inertia in atomic units:
                           1         2         3
     Eigenvalues --   747.230941356.559341826.64287
           X            0.99973   0.02284  -0.00460
           Y           -0.02287   0.99971  -0.00686
           Z            0.00444   0.00696   0.99997
 This molecule is an asymmetric top.
 Rotational symmetry number  1.
 Warning -- assumption of classical behavior for rotation
           may cause significant error
 Rotational temperatures (Kelvin)      0.11591     0.06385     0.04742
 Rotational constants (GHZ):           2.41524     1.33038     0.98801
 Zero-point vibrational energy     548170.4 (Joules/Mol)
                                  131.01586 (Kcal/Mol)
 Warning -- explicit consideration of  12 degrees of freedom as
           vibrations may cause significant error
 Vibrational temperatures:    105.85   155.06   201.15   300.54   351.07
          (Kelvin)            436.07   448.61   505.14   604.68   638.47
                              717.67   876.39   946.88  1042.52  1119.45
                             1220.26  1232.19  1242.24  1310.11  1356.47
                             1404.48  1465.10  1505.68  1553.22  1564.19
                             1603.90  1636.90  1653.34  1697.57  1784.56
                             1834.96  1857.86  1889.38  1912.94  1956.06
                             1977.82  1992.30  2004.08  2012.96  2028.91
                             2072.46  2152.17  2174.15  2186.01  2187.32
                             2205.69  2208.88  2219.69  2597.92  4280.48
                             4345.97  4351.21  4370.14  4372.13  4374.59
                             4395.56  4423.81  4430.72  4438.51  4442.78
                             4479.19  4482.83  4520.24

 Zero-point correction=                           0.208787 (Hartree/Particle)
 Thermal correction to Energy=                    0.217946
 Thermal correction to Enthalpy=                  0.218890
 Thermal correction to Gibbs Free Energy=         0.174844
 Sum of electronic and zero-point Energies=           -388.309628
 Sum of electronic and thermal Energies=              -388.300470
 Sum of electronic and thermal Enthalpies=            -388.299526
 Sum of electronic and thermal Free Energies=         -388.343571

                     E (Thermal)             CV                S
                      KCal/Mol        Cal/Mol-Kelvin    Cal/Mol-Kelvin
 Total                  136.763             35.037             92.702
 Electronic               0.000              0.000              0.000
 Translational            0.889              2.981             40.409
 Rotational               0.889              2.981             29.006
 Vibrational            134.985             29.075             23.287
 Vibration     1          0.599              1.966              4.055
 Vibration     2          0.606              1.943              3.309
 Vibration     3          0.615              1.914              2.807
 Vibration     4          0.642              1.827              2.053
 Vibration     5          0.659              1.773              1.773
 Vibration     6          0.695              1.668              1.400
 Vibration     7          0.700              1.651              1.353
 Vibration     8          0.728              1.573              1.161
 Vibration     9          0.783              1.426              0.891
 Vibration    10          0.803              1.375              0.815
 Vibration    11          0.854              1.253              0.661
 Vibration    12          0.968              1.012              0.434

 Normal termination of Gaussian 16 at Wed Feb 21 19:01:12 2024.
