 Gaussian 16, Revision A.03,
 Gaussian 16:  EM64M-G16RevA.03 25-Dec-2016

 ---------------------
 # freq b3lyp/6-31g(d)
 ---------------------

 ---------
 good luck
 ---------
 Symbolic Z-matrix:
 Charge =  0 Multiplicity = 1

                         Standard orientation:
 ---------------------------------------------------------------------
 Center     Atomic      Atomic             Coordinates (Angstroms)
 Number     Number       Type             X           Y           Z
 ---------------------------------------------------------------------
      1          8           0        0.676533    1.771558   -0.650436
      2          6           0        0.016208    0.950803   -0.039433
      3          6           0        0.493119   -0.483401    0.213213
      4          6           0        1.904914   -0.754465   -0.324259
      5          6           0        3.019843   -0.068111    0.472644
      6          6           0       -0.567137   -1.457514   -0.366530
      7          6           0       -1.975984   -1.187178    0.180228
      8          6           0       -2.412064    0.260806   -0.081381
      9          6           0       -1.382120    1.265667    0.478469
     10          1           0        0.490096   -0.625353    1.307356
     11          1           0        1.951188   -0.429513   -1.370677
     12          1           0        2.071392   -1.840351   -0.321843
     13          1           0        3.009355   -0.384880    1.523591
     14          1           0        4.004253   -0.320047    0.062090
     15          1           0        2.909710    1.019143    0.440247
     16          1           0       -0.573177   -1.363828   -1.462314
     17          1           0       -0.261671   -2.487582   -0.144137
     18          1           0       -1.989683   -1.382997    1.262548
     19          1           0       -2.693192   -1.883690   -0.271730
     20          1           0       -2.514244    0.421209   -1.163554
     21          1           0       -3.397399    0.455664    0.358849
     22          1           0       -1.370614    1.193396    1.576272
     23          1           0       -1.628951    2.296731    0.209081
 ---------------------------------------------------------------------

 SCF Done:  E(RB3LYP) =  -388.519952768     A.U. after   13 cycles

 The electronic state is 1-A.
 Alpha  occ. eigenvalues --  -19.13432 -10.26715 -10.19443 -10.19401 -10.19224
 Alpha  occ. eigenvalues --  -10.19058 -10.18996 -10.17787 -10.16571  -1.03262
 Alpha  occ. eigenvalues --   -0.83454  -0.78191  -0.73626  -0.70977  -0.63005
 Alpha  occ. eigenvalues --   -0.60161  -0.57938  -0.52648  -0.47496  -0.46902
 Alpha  occ. eigenvalues --   -0.44734  -0.43393  -0.42167  -0.41465  -0.40196
 Alpha  occ. eigenvalues --   -0.39476  -0.37324  -0.36286  -0.35175  -0.34053
 Alpha  occ. eigenvalues --   -0.33286  -0.33075  -0.32169  -0.31005  -0.23459
 Alpha virt. eigenvalues --   -0.01264   0.09053   0.10076   0.11250   0.13059
 Alpha virt. eigenvalues --    0.14386   0.14517   0.15275   0.16230   0.16632
 Alpha virt. eigenvalues --    0.17555   0.18139   0.18886   0.19464   0.19907

 Mulliken charges:
               1
     1  O   -0.451126
     2  C    0.448847
     3  C   -0.162006
     4  C   -0.244548
     5  C   -0.455278
     6  C   -0.272854
     7  C   -0.265737
     8  C   -0.270055
     9  C   -0.337872
    10  H    0.134684
    11  H    0.148729
    12  H    0.124853
    13  H    0.131601
    14  H    0.141199
    15  H    0.171191
    16  H    0.142044
    17  H    0.141818
    18  H    0.132831
    19  H    0.140333
    20  H    0.146273
    21  H    0.143413
    22  H    0.150081
    23  H    0.161583
 Sum of Mulliken charges =  -0.00000

 Dipole moment (field-independent basis, Debye):
    X=             -1.7270    Y=             -1.9614    Z=              1.1540  Tot=              2.8568
 Quadrupole moment (field-independent basis, Debye-Ang):
   XX=            -55.5508   YY=            -59.9761   ZZ=            -55.9355
   XY=             -2.5816   XZ=              0.6257   YZ=              2.3562

  Exact polarizability:  95.203   1.070  82.421  -2.271  -1.136  71.078
 Approx polarizability: 116.612   6.123 118.627  -6.349  -7.672 112.177

                      1                      2                      3
                      A                      A                      A
 Frequencies --     81.9011               100.5328               143.3297
 Red. masses --      4.0097                 2.1658                 2.2924
 Frc consts  --      0.0158                 0.0129                 0.0277
 IR Inten    --      1.7432                 0.0663                 1.1463

                      4                      5                      6
                      A                      A                      A
 Frequencies --    197.2563               233.8548               296.2853
 Red. masses --      2.0170                 1.5393                 2.2093
 Frc consts  --      0.0462                 0.0496                 0.1143
 IR Inten    --      1.3706                 0.4266                 2.1135

                      7                      8                      9
                      A                      A                      A
 Frequencies --    306.2122               361.2358               424.4392
 Red. masses --      1.7817                 3.6636                 2.7765
 Frc consts  --      0.0984                 0.2817                 0.2947
 IR Inten    --      0.7668                 2.3991                 1.5812

                     10                     11                     12
                      A                      A                      A
 Frequencies --    437.9675               497.3767               572.2048
 Red. masses --      3.0182                 2.0344                 3.0234
 Frc consts  --      0.3411                 0.2965                 0.5832
 IR Inten    --      0.8188                 2.5463                 3.7313

                     13                     14                     15
                      A                      A                      A
 Frequencies --    670.5364               720.1775               793.4385
 Red. masses --      3.0784                 2.0766                 1.3304
 Frc consts  --      0.8155                 0.6346                 0.4935
 IR Inten    --      1.2814                 8.0019                 0.8507

                     16                     17                     18
                      A                      A                      A
 Frequencies --    846.9421               863.9496               876.4776
 Red. masses --      1.7871                 2.3222                 1.8643
 Frc consts  --      0.7553                 1.0212                 0.8438
 IR Inten    --     10.1363                 0.6992                 4.3001

                     19                     20                     21
                      A                      A                      A
 Frequencies --    915.9032               945.3629               990.8085
 Red. masses --      1.4353                 2.4498                 1.7976
 Frc consts  --      0.7094                 1.2900                 1.0398
 IR Inten    --      1.0874                 2.5675                 1.1149

                     22                     23                     24
                      A                      A                      A
 Frequencies --   1025.6888              1041.3304              1075.2440
 Red. masses --      1.9212                 1.6866                 1.5549
 Frc consts  --      1.1908                 1.0776                 1.0592
 IR Inten    --      4.3822                 1.7246                13.5769

                     25                     26                     27
                      A                      A                      A
 Frequencies --   1083.8689              1108.6541              1142.7888
 Red. masses --      1.8303                 1.9577                 1.5826
 Frc consts  --      1.2669                 1.4177                 1.2177
 IR Inten    --      1.5632                 2.6007                 9.0941

                     28                     29                     30
                      A                      A                      A
 Frequencies --   1160.1034              1166.9156              1238.0862
 Red. masses --      2.1170                 2.2009                 1.5106
 Frc consts  --      1.6787                 1.7658                 1.3643
 IR Inten    --     19.3004                 1.5262                18.4768

                     31                     32                     33
                      A                      A                      A
 Frequencies --   1269.5382              1289.9692              1306.1025
 Red. masses --      1.3928                 1.2933                 1.2417
 Frc consts  --      1.3226                 1.2680                 1.2480
 IR Inten    --      0.3958                 0.3324                 4.3967

                     34                     35                     36
                      A                      A                      A
 Frequencies --   1317.3718              1355.5513              1370.1762
 Red. masses --      1.2123                 1.3687                 1.3108
 Frc consts  --      1.2395                 1.4818                 1.4499
 IR Inten    --      1.5764                 3.3826                 3.9524

                     37                     38                     39
                      A                      A                      A
 Frequencies --   1386.7512              1396.6500              1399.0329
 Red. masses --      1.4443                 1.4185                 1.4728
 Frc consts  --      1.6365                 1.6302                 1.6985
 IR Inten    --      6.9541                 0.6148                 1.1232

                     40                     41                     42
                      A                      A                      A
 Frequencies --   1411.2918              1436.9915              1499.2817
 Red. masses --      1.6632                 1.2541                 1.0930
 Frc consts  --      1.9517                 1.5258                 1.4476
 IR Inten    --     13.2680                 3.7410                 5.5887

                     43                     44                     45
                      A                      A                      A
 Frequencies --   1509.6381              1518.7132              1520.0126
 Red. masses --      1.0787                 1.0857                 1.0869
 Frc consts  --      1.4485                 1.4754                 1.4795
 IR Inten    --      0.4046                 4.7618                 7.4310

                     46                     47                     48
                      A                      A                      A
 Frequencies --   1528.1421              1533.8726              1543.9699
 Red. masses --      1.0483                 1.0955                 1.0514
 Frc consts  --      1.4424                 1.5185                 1.4767
 IR Inten    --      5.4902                 0.9825                 5.6445

                     49                     50                     51
                      A                      A                      A
 Frequencies --   1807.0762              2988.6738              3024.3935
 Red. masses --     11.0879                 1.0807                 1.0694
 Frc consts  --     21.3329                 5.6874                 5.7630
 IR Inten    --    153.7189                 9.2107                13.9464

                     52                     53                     54
                      A                      A                      A
 Frequencies --   3028.7111              3029.4805              3037.8091
 Red. masses --      1.0679                 1.0627                 1.0649
 Frc consts  --      5.7716                 5.7465                 5.7898
 IR Inten    --      4.1275                24.0063                40.6883

                     55                     56                     57
                      A                      A                      A
 Frequencies --   3039.7974              3045.2789              3074.4308
 Red. masses --      1.0619                 1.0413                 1.0962
 Frc consts  --      5.7810                 5.6894                 6.1048
 IR Inten    --     36.2534                30.6581                34.0214

                     58                     59                     60
                      A                      A                      A
 Frequencies --   3077.5417              3082.9900              3085.7708
 Red. masses --      1.0977                 1.0981                 1.1027
 Frc consts  --      6.1257                 6.1497                 6.1864
 IR Inten    --     40.9560                24.0483                56.1665

                     61                     62                     63
                      A                      A                      A
 Frequencies --   3106.8189              3118.8939              3143.3679
 Red. masses --      1.1001                 1.0960                 1.1000
 Frc consts  --      6.2565                 6.2817                 6.4040
 IR Inten    --     50.4402                21.2722                22.0740

 - Thermochemistry -
 -------------------
 Temperature   298.150 Kelvin.  Pressure   1.00000 Atm.
 Atom     1 has atomic number  8 and mass  15.99491

 Molecular mass:   126.10447 amu.
 Principal axes and moments of inertia in atomic units:
                           1         2         3
     Eigenvalues --   675.590091476.132641936.45790
           X            0.99989  -0.01414   0.00459
           Y            0.01402   0.99959   0.02505
           Z           -0.00494  -0.02499   0.99968
 This molecule is an asymmetric top.
 Rotational symmetry number  1.
 Warning -- assumption of classical behavior for rotation
           may cause significant error
 Rotational temperatures (Kelvin)      0.12820     0.05868     0.04473
 Rotational constants (GHZ):           2.67136     1.22261     0.93198
 Zero-point vibrational energy     547907.4 (Joules/Mol)
                                  130.95301 (Kcal/Mol)
 Warning -- explicit consideration of  12 degrees of freedom as
           vibrations may cause significant error
 Vibrational temperatures:    117.84   144.64   206.22   283.81   336.46
          (Kelvin)            426.29   440.57   519.74   610.67   630.14
                              715.61   823.28   964.75  1036.17  1141.58
                             1218.56  1243.03  1261.06  1317.78  1360.17
                             1425.55  1475.74  1498.24  1547.04  1559.45
                             1595.11  1644.22  1669.13  1678.93  1781.33
                             1826.58  1855.98  1879.19  1895.40  1950.34
                             1971.38  1995.23  2009.47  2012.90  2030.53
                             2067.51  2157.13  2172.03  2185.09  2186.96
                             2198.66  2206.90  2221.43  2599.98  4300.03
                             4351.43  4357.64  4358.75  4370.73  4373.59
                             4381.48  4423.42  4427.90  4435.73  4439.74
                             4470.02  4487.39  4522.61

 Zero-point correction=                           0.208687 (Hartree/Particle)
 Thermal correction to Energy=                    0.217882
 Thermal correction to Enthalpy=                  0.218826
 Thermal correction to Gibbs Free Energy=         0.174707
 Sum of electronic and zero-point Energies=           -388.311266
 Sum of electronic and thermal Energies=              -388.302071
 Sum of electronic and thermal Enthalpies=            -388.301127
 Sum of electronic and thermal Free Energies=         -388.345246

                     E (Thermal)             CV                S
                      KCal/Mol        Cal/Mol-Kelvin    Cal/Mol-Kelvin
 Total                  136.723             35.080             92.857
 Electronic               0.000              0.000              0.000
 Translational            0.889              2.981             40.409
 Rotational               0.889              2.981             29.047
 Vibrational            134.946             29.119             23.400
 Vibration     1          0.600              1.962              3.845
 Vibration     2          0.604              1.949              3.444
 Vibration     3          0.616              1.910              2.759
 Vibration     4          0.637              1.844              2.159
 Vibration     5          0.654              1.789              1.849
 Vibration     6          0.690              1.681              1.438
 Vibration     7          0.697              1.662              1.383
 Vibration     8          0.735              1.552              1.117
 Vibration     9          0.786              1.417              0.877
 Vibration    10          0.798              1.387              0.833
 Vibration    11          0.853              1.256              0.665
 Vibration    12          0.928              1.091              0.500

 Normal termination of Gaussian 16 at Wed Feb 21 18:57:58 2024.
