 Gaussian 16, Revision A.03,
 Gaussian 16:  EM64M-G16RevA.03 25-Dec-2016

 ---------------------
 # freq b3lyp/6-31g(d)
 ---------------------

 ---------
 good luck
 ---------
 Symbolic Z-matrix:
 Charge =  0 Multiplicity = 1

                         Standard orientation:
 ---------------------------------------------------------------------
 Center     Atomic      Atomic             Coordinates (Angstroms)
 Number     Number       Type             X           Y           Z
 ---------------------------------------------------------------------
      1          8           0        3.126573    0.000000    0.363802
      2          6           0        2.005349    0.000000   -0.114365
      3          6           0        1.273961   -1.315824   -0.394978
      4          6           0        2.239791   -2.503378   -0.334123
      5          6           0        0.098861   -1.500287    0.618018
      6          6           0       -1.151478   -0.705410    0.311571
      7          6           0       -2.338945   -1.383131    0.007168
      8          6           0       -3.515875   -0.696777   -0.291249
      9          6           0       -3.515875    0.696778   -0.291249
     10          6           0       -2.338945    1.383132    0.007168
     11          6           0       -1.151479    0.705410    0.311572
     12          6           0        0.098861    1.500287    0.618018
     13          6           0        1.273961    1.315823   -0.394978
     14          6           0        2.239791    2.503378   -0.334124
     15          1           0        0.832040   -1.252754   -1.399256
     16          1           0        2.659956   -2.614676    0.670102
     17          1           0        3.078393   -2.366418   -1.023371
     18          1           0        1.719448   -3.430116   -0.600283
     19          1           0       -0.159754   -2.564963    0.628577
     20          1           0        0.471988   -1.270819    1.626906
     21          1           0       -2.338786   -2.471014    0.008025
     22          1           0       -4.423503   -1.248366   -0.521254
     23          1           0       -4.423502    1.248366   -0.521253
     24          1           0       -2.338786    2.471014    0.008026
     25          1           0       -0.159754    2.564963    0.628578
     26          1           0        0.471988    1.270818    1.626906
     27          1           0        0.832039    1.252754   -1.399255
     28          1           0        1.719448    3.430116   -0.600286
     29          1           0        2.659955    2.614678    0.670102
     30          1           0        3.078393    2.366417   -1.023370
 ---------------------------------------------------------------------

 SCF Done:  E(RB3LYP) =  -580.257408763     A.U. after   15 cycles

 The electronic state is 1-A.
 Alpha  occ. eigenvalues --  -19.13564 -10.26705 -10.19969 -10.19968 -10.19812
 Alpha  occ. eigenvalues --  -10.19812 -10.19759 -10.19711 -10.19013 -10.18976
 Alpha  occ. eigenvalues --  -10.18939 -10.18921 -10.17412 -10.17412  -1.03523
 Alpha  occ. eigenvalues --   -0.86442  -0.81437  -0.79832  -0.75517  -0.74906
 Alpha  occ. eigenvalues --   -0.68967  -0.67624  -0.64955  -0.60315  -0.60021
 Alpha  occ. eigenvalues --   -0.56343  -0.52079  -0.50777  -0.48657  -0.47338
 Alpha  occ. eigenvalues --   -0.45866  -0.44481  -0.43017  -0.42447  -0.42221
 Alpha  occ. eigenvalues --   -0.40446  -0.39752  -0.39377  -0.38534  -0.37191
 Alpha  occ. eigenvalues --   -0.37188  -0.35515  -0.35163  -0.34690  -0.33793
 Alpha  occ. eigenvalues --   -0.33367  -0.33272  -0.32362  -0.24871  -0.23996
 Alpha  occ. eigenvalues --   -0.23747
 Alpha virt. eigenvalues --   -0.01291  -0.00425  -0.00001   0.08956   0.09266
 Alpha virt. eigenvalues --    0.10555   0.10833   0.13258   0.13653   0.14608
 Alpha virt. eigenvalues --    0.15177   0.15887   0.16714   0.17233   0.17717

 Mulliken charges:
               1
     1  O   -0.453287
     2  C    0.443924
     3  C   -0.154675
     4  C   -0.439245
     5  C   -0.373288
     6  C    0.131268
     7  C   -0.193671
     8  C   -0.126483
     9  C   -0.126483
    10  C   -0.193671
    11  C    0.131267
    12  C   -0.373288
    13  C   -0.154675
    14  C   -0.439245
    15  H    0.144213
    16  H    0.161021
    17  H    0.155330
    18  H    0.135936
    19  H    0.152336
    20  H    0.158514
    21  H    0.124222
    22  H    0.129204
    23  H    0.129204
    24  H    0.124222
    25  H    0.152336
    26  H    0.158514
    27  H    0.144213
    28  H    0.135936
    29  H    0.161021
    30  H    0.155330
 Sum of Mulliken charges =  -0.00000

 Dipole moment (field-independent basis, Debye):
    X=             -2.2487    Y=              0.0000    Z=             -0.7870  Tot=              2.3824
 Quadrupole moment (field-independent basis, Debye-Ang):
   XX=            -91.6208   YY=            -77.6788   ZZ=            -84.3894
   XY=             -0.0000   XZ=             -1.2287   YZ=              0.0000

  Exact polarizability: 168.700  -0.000 142.826  11.425   0.000  80.875
 Approx polarizability: 241.609  -0.000 217.178  28.472   0.000 131.412

                      1                      2                      3
                      A                      A                      A
 Frequencies --     61.2523                67.4448               105.9772
 Red. masses --      6.8255                 3.2644                 3.6788
 Frc consts  --      0.0151                 0.0087                 0.0243
 IR Inten    --      2.4708                 0.1332                 0.6531

                      4                      5                      6
                      A                      A                      A
 Frequencies --    162.7120               211.8263               215.9475
 Red. masses --      3.0705                 1.3743                 1.0795
 Frc consts  --      0.0479                 0.0363                 0.0297
 IR Inten    --      0.0225                 0.3126                 0.0688

                      7                      8                      9
                      A                      A                      A
 Frequencies --    234.0344               258.5080               282.9970
 Red. masses --      2.0693                 2.6030                 4.3692
 Frc consts  --      0.0668                 0.1025                 0.2062
 IR Inten    --      0.7012                 0.1702                 0.1128

                     10                     11                     12
                      A                      A                      A
 Frequencies --    305.7740               315.4691               345.9999
 Red. masses --      2.4954                 2.1539                 3.9683
 Frc consts  --      0.1375                 0.1263                 0.2799
 IR Inten    --      0.2560                 1.2895                 1.5600

                     13                     14                     15
                      A                      A                      A
 Frequencies --    349.1871               428.6536               445.9533
 Red. masses --      4.5717                 2.1883                 3.4141
 Frc consts  --      0.3284                 0.2369                 0.4000
 IR Inten    --     11.9466                 0.1619                 0.8567

                     16                     17                     18
                      A                      A                      A
 Frequencies --    478.5941               526.6912               586.9429
 Red. masses --      3.6586                 3.5595                 4.2420
 Frc consts  --      0.4937                 0.5818                 0.8610
 IR Inten    --      4.5063                 0.1430                 0.5724

                     19                     20                     21
                      A                      A                      A
 Frequencies --    629.3032               642.5668               727.3446
 Red. masses --      5.2464                 3.3971                 2.8916
 Frc consts  --      1.2241                 0.8264                 0.9013
 IR Inten    --      2.3653                 2.1300                11.7298

                     22                     23                     24
                      A                      A                      A
 Frequencies --    751.8131               759.4511               767.2116
 Red. masses --      4.3120                 2.2755                 2.2356
 Frc consts  --      1.4360                 0.7732                 0.7753
 IR Inten    --      0.0017                 4.7648                12.5575

                     25                     26                     27
                      A                      A                      A
 Frequencies --    784.4104               855.7011               889.0323
 Red. masses --      1.8659                 2.1301                 2.6392
 Frc consts  --      0.6764                 0.9190                 1.2290
 IR Inten    --     15.8768                 0.0466                 0.6837

                     28                     29                     30
                      A                      A                      A
 Frequencies --    896.6597               914.6175               929.2986
 Red. masses --      1.8249                 1.8426                 1.6664
 Frc consts  --      0.8645                 0.9082                 0.8479
 IR Inten    --      1.0372                 6.1754                 2.3549

                     31                     32                     33
                      A                      A                      A
 Frequencies --    935.5355               949.2296               984.0229
 Red. masses --      1.8539                 1.3822                 1.2624
 Frc consts  --      0.9560                 0.7338                 0.7202
 IR Inten    --      0.0332                 0.2700                 0.0382

                     34                     35                     36
                      A                      A                      A
 Frequencies --   1003.1686              1042.2878              1076.3705
 Red. masses --      3.6495                 1.4941                 2.1733
 Frc consts  --      2.1639                 0.9563                 1.4835
 IR Inten    --     24.8558                 1.1967                 0.3135

                     37                     38                     39
                      A                      A                      A
 Frequencies --   1089.4232              1116.8215              1124.2559
 Red. masses --      2.1044                 1.9725                 1.8820
 Frc consts  --      1.4715                 1.4495                 1.4016
 IR Inten    --      5.0893                 0.2362                15.6384

                     40                     41                     42
                      A                      A                      A
 Frequencies --   1128.3652              1137.7955              1157.8241
 Red. masses --      2.0716                 2.0672                 2.0720
 Frc consts  --      1.5541                 1.5767                 1.6366
 IR Inten    --      1.2298                 4.1660                26.1698

                     43                     44                     45
                      A                      A                      A
 Frequencies --   1196.9948              1203.2632              1216.4855
 Red. masses --      1.1031                 1.2217                 2.5103
 Frc consts  --      0.9312                 1.0421                 2.1887
 IR Inten    --      0.0244                 4.4086                 2.5796

                     46                     47                     48
                      A                      A                      A
 Frequencies --   1217.7567              1248.3796              1303.1230
 Red. masses --      1.3805                 2.1628                 1.3308
 Frc consts  --      1.2062                 1.9859                 1.3315
 IR Inten    --      0.8033                 0.5685                 4.1797

                     49                     50                     51
                      A                      A                      A
 Frequencies --   1319.0575              1344.2975              1352.6171
 Red. masses --      1.6369                 1.2458                 1.3849
 Frc consts  --      1.6780                 1.3264                 1.4929
 IR Inten    --      0.1986                 0.9261                16.0891

                     52                     53                     54
                      A                      A                      A
 Frequencies --   1352.9562              1361.8795              1397.8409
 Red. masses --      1.5082                 2.5886                 1.5299
 Frc consts  --      1.6265                 2.8288                 1.7613
 IR Inten    --      2.8507                 0.1623                 0.1856

                     55                     56                     57
                      A                      A                      A
 Frequencies --   1415.6851              1439.1983              1440.1863
 Red. masses --      1.7401                 1.2221                 1.2381
 Frc consts  --      2.0547                 1.4914                 1.5130
 IR Inten    --      3.7393                 3.6577                 3.7888

                     58                     59                     60
                      A                      A                      A
 Frequencies --   1496.6688              1512.8334              1518.3979
 Red. masses --      1.9874                 1.1518                 1.0709
 Frc consts  --      2.6229                 1.5532                 1.4547
 IR Inten    --      2.2948                 3.1252                 1.5080

                     61                     62                     63
                      A                      A                      A
 Frequencies --   1521.7181              1522.8108              1526.6470
 Red. masses --      1.0598                 1.0868                 1.0581
 Frc consts  --      1.4460                 1.4849                 1.4529
 IR Inten    --      1.3280                16.8375                10.1866

                     64                     65                     66
                      A                      A                      A
 Frequencies --   1528.6933              1541.6092              1636.5832
 Red. masses --      1.1196                 2.0843                 5.8808
 Frc consts  --      1.5415                 2.9185                 9.2804
 IR Inten    --      1.1196                13.2934                 0.3816

                     67                     68                     69
                      A                      A                      A
 Frequencies --   1663.5305              1792.8611              3022.8478
 Red. masses --      5.7632                11.1229                 1.0713
 Frc consts  --      9.3968                21.0649                 5.7675
 IR Inten    --      0.1675               154.9770                 1.2070

                     70                     71                     72
                      A                      A                      A
 Frequencies --   3025.2716              3034.3969              3043.7715
 Red. masses --      1.0684                 1.0784                 1.0811
 Frc consts  --      5.7614                 5.8504                 5.9013
 IR Inten    --     15.3284                10.5328                43.6992

                     73                     74                     75
                      A                      A                      A
 Frequencies --   3059.3456              3059.7757              3083.3303
 Red. masses --      1.0367                 1.0368                 1.0958
 Frc consts  --      5.7171                 5.7192                 6.1377
 IR Inten    --     39.1689                 8.8130                34.2897

                     76                     77                     78
                      A                      A                      A
 Frequencies --   3084.7561              3128.0057              3128.4605
 Red. masses --      1.0964                 1.1019                 1.1018
 Frc consts  --      6.1467                 6.3525                 6.3537
 IR Inten    --      3.0816                14.3994                33.3630

                     79                     80                     81
                      A                      A                      A
 Frequencies --   3138.5242              3138.8675              3172.7292
 Red. masses --      1.1024                 1.1024                 1.0860
 Frc consts  --      6.3980                 6.3992                 6.4409
 IR Inten    --      0.0788                41.0486                14.1170

                     82                     83                     84
                      A                      A                      A
 Frequencies --   3176.8523              3191.9820              3207.0008
 Red. masses --      1.0887                 1.0915                 1.0974
 Frc consts  --      6.4736                 6.5522                 6.6499
 IR Inten    --      1.9221                28.0397                29.4802

 - Thermochemistry -
 -------------------
 Temperature   298.150 Kelvin.  Pressure   1.00000 Atm.
 Atom     1 has atomic number  8 and mass  15.99491

 Molecular mass:   188.12012 amu.
 Principal axes and moments of inertia in atomic units:
                           1         2         3
     Eigenvalues --  1556.942753400.352064695.96677
           X            1.00000  -0.00000  -0.00140
           Y            0.00000   1.00000  -0.00000
           Z            0.00140   0.00000   1.00000
 This molecule is an asymmetric top.
 Rotational symmetry number  1.
 Warning -- assumption of classical behavior for rotation
           may cause significant error
 Rotational temperatures (Kelvin)      0.05563     0.02547     0.01844
 Rotational constants (GHZ):           1.15916     0.53075     0.38432
 Zero-point vibrational energy     684529.9 (Joules/Mol)
                                  163.60658 (Kcal/Mol)
 Warning -- explicit consideration of  18 degrees of freedom as
           vibrations may cause significant error
 Vibrational temperatures:     88.13    97.04   152.48   234.11   304.77
          (Kelvin)            310.70   336.72   371.94   407.17   439.94
                              453.89   497.82   502.40   616.74   641.63
                              688.59   757.79   844.48   905.43   924.51
                             1046.49  1081.69  1092.68  1103.85  1128.59
                             1231.16  1279.12  1290.09  1315.93  1337.05
                             1346.03  1365.73  1415.79  1443.34  1499.62
                             1548.66  1567.44  1606.86  1617.55  1623.47
                             1637.03  1665.85  1722.21  1731.23  1750.25
                             1752.08  1796.14  1874.90  1897.83  1934.14
                             1946.11  1946.60  1959.44  2011.18  2036.86
                             2070.69  2072.11  2153.37  2176.63  2184.64
                             2189.41  2190.99  2196.50  2199.45  2218.03
                             2354.68  2393.45  2579.53  4349.20  4352.69
                             4365.82  4379.31  4401.72  4402.33  4436.22
                             4438.28  4500.50  4501.16  4515.64  4516.13
                             4564.85  4570.78  4592.55  4614.16

 Zero-point correction=                           0.260724 (Hartree/Particle)
 Thermal correction to Energy=                    0.273303
 Thermal correction to Enthalpy=                  0.274247
 Thermal correction to Gibbs Free Energy=         0.222266
 Sum of electronic and zero-point Energies=           -579.996685
 Sum of electronic and thermal Energies=              -579.984106
 Sum of electronic and thermal Enthalpies=            -579.983162
 Sum of electronic and thermal Free Energies=         -580.035143

                     E (Thermal)             CV                S
                      KCal/Mol        Cal/Mol-Kelvin    Cal/Mol-Kelvin
 Total                  171.500             50.130            109.404
 Electronic               0.000              0.000              0.000
 Translational            0.889              2.981             41.602
 Rotational               0.889              2.981             31.586
 Vibrational            169.723             44.169             36.216
 Vibration     1          0.597              1.973              4.416
 Vibration     2          0.598              1.970              4.227
 Vibration     3          0.605              1.944              3.341
 Vibration     4          0.623              1.888              2.518
 Vibration     5          0.643              1.823              2.028
 Vibration     6          0.645              1.817              1.993
 Vibration     7          0.654              1.789              1.848
 Vibration     8          0.667              1.748              1.672
 Vibration     9          0.682              1.705              1.515
 Vibration    10          0.696              1.663              1.385
 Vibration    11          0.703              1.644              1.333
 Vibration    12          0.724              1.583              1.184
 Vibration    13          0.726              1.577              1.170
 Vibration    14          0.790              1.408              0.863
 Vibration    15          0.805              1.370              0.808
 Vibration    16          0.835              1.298              0.714
 Vibration    17          0.882              1.191              0.595
 Vibration    18          0.944              1.060              0.473

 Optimization completed.
    -- Stationary point found.
 Normal termination of Gaussian 16 at Sat Feb 24 02:34:04 2024.
