 Gaussian 16, Revision A.03,
 Gaussian 16:  EM64M-G16RevA.03 25-Dec-2016

 ---------------------
 # freq b3lyp/6-31g(d)
 ---------------------

 ---------
 good luck
 ---------
 Symbolic Z-matrix:
 Charge =  0 Multiplicity = 1

                         Standard orientation:
 ---------------------------------------------------------------------
 Center     Atomic      Atomic             Coordinates (Angstroms)
 Number     Number       Type             X           Y           Z
 ---------------------------------------------------------------------
      1          8           0        2.531281   -1.727202    0.000001
      2          6           0        1.614777   -0.929779    0.000001
      3          6           0        0.979995   -0.364565   -1.269007
      4          6           0       -0.529138   -0.707472   -1.265856
      5          6           0        1.164028    1.174171   -1.259391
      6          6           0        0.501513    1.768026   -0.000003
      7          6           0        1.164032    1.174176    1.259385
      8          6           0        0.979997   -0.364559    1.269008
      9          6           0       -0.529137   -0.707467    1.265862
     10          6           0       -1.201599   -0.104475    0.000002
     11          6           0       -2.636098   -0.424283    0.000001
     12          7           0       -3.770604   -0.673205   -0.000001
     13          6           0       -1.004197    1.438123   -0.000000
     14          1           0        1.471730   -0.816920   -2.135609
     15          1           0       -1.004081   -0.302673   -2.167887
     16          1           0       -0.676947   -1.793682   -1.282234
     17          1           0        2.232279    1.424014   -1.281463
     18          1           0        0.715753    1.600249   -2.166850
     19          1           0        0.626557    2.857929   -0.000006
     20          1           0        2.232283    1.424018    1.281453
     21          1           0        0.715760    1.600258    2.166844
     22          1           0        1.471735   -0.816911    2.135610
     23          1           0       -0.676944   -1.793677    1.282245
     24          1           0       -1.004077   -0.302664    2.167892
     25          1           0       -1.492551    1.869363    0.882373
     26          1           0       -1.492553    1.869360   -0.882374
 ---------------------------------------------------------------------

 SCF Done:  E(RB3LYP) =  -556.975076061     A.U. after   15 cycles

 The electronic state is 1-A.
 Alpha  occ. eigenvalues --  -19.14667 -14.33424 -10.27817 -10.25179 -10.22519
 Alpha  occ. eigenvalues --  -10.21552 -10.21551 -10.21311 -10.21077 -10.21075
 Alpha  occ. eigenvalues --  -10.21059 -10.20665 -10.20663  -1.04528  -0.91181
 Alpha  occ. eigenvalues --   -0.88904  -0.80814  -0.79871  -0.78282  -0.69701
 Alpha  occ. eigenvalues --   -0.67086  -0.63800  -0.62151  -0.59318  -0.54548
 Alpha  occ. eigenvalues --   -0.50286  -0.47986  -0.47381  -0.46035  -0.45963
 Alpha  occ. eigenvalues --   -0.44383  -0.43874  -0.43352  -0.42068  -0.41626
 Alpha  occ. eigenvalues --   -0.38297  -0.38272  -0.36969  -0.36581  -0.36239
 Alpha  occ. eigenvalues --   -0.35863  -0.33636  -0.33134  -0.32552  -0.31250
 Alpha  occ. eigenvalues --   -0.30906  -0.24434
 Alpha virt. eigenvalues --   -0.02400   0.03293   0.03320   0.05037   0.10304
 Alpha virt. eigenvalues --    0.10337   0.11129   0.11987   0.12011   0.12640
 Alpha virt. eigenvalues --    0.13396   0.15351   0.17134   0.17625   0.17655

 Mulliken charges:
               1
     1  O   -0.449843
     2  C    0.455581
     3  C   -0.171428
     4  C   -0.285106
     5  C   -0.283608
     6  C   -0.101344
     7  C   -0.283608
     8  C   -0.171429
     9  C   -0.285106
    10  C   -0.000118
    11  C    0.331453
    12  N   -0.482929
    13  C   -0.271243
    14  H    0.154013
    15  H    0.159227
    16  H    0.166395
    17  H    0.152269
    18  H    0.145051
    19  H    0.138209
    20  H    0.152270
    21  H    0.145051
    22  H    0.154013
    23  H    0.166395
    24  H    0.159227
    25  H    0.153305
    26  H    0.153305
 Sum of Mulliken charges =  -0.00000

 Dipole moment (field-independent basis, Debye):
    X=              1.8851    Y=              3.0560    Z=              0.0000  Tot=              3.5906
 Quadrupole moment (field-independent basis, Debye-Ang):
   XX=           -102.6975   YY=            -77.7454   ZZ=            -71.7561
   XY=              2.9176   XZ=             -0.0000   YZ=              0.0000

  Exact polarizability: 124.738   0.264 100.138   0.000   0.000  97.779
 Approx polarizability: 187.515  -4.158 151.394   0.000   0.000 144.336

                      1                      2                      3
                      A                      A                      A
 Frequencies --     89.6400               136.6930               152.9409
 Red. masses --     10.9950                 5.6782                 5.5011
 Frc consts  --      0.0521                 0.0625                 0.0758
 IR Inten    --      6.5504                 6.4057                 2.8133

                      4                      5                      6
                      A                      A                      A
 Frequencies --    274.8975               285.0773               350.0858
 Red. masses --      2.4066                 2.2601                 2.3633
 Frc consts  --      0.1072                 0.1082                 0.1707
 IR Inten    --      1.3158                 0.2742                 0.3388

                      7                      8                      9
                      A                      A                      A
 Frequencies --    367.3761               389.5180               403.6753
 Red. masses --      6.2008                 5.0640                 2.9990
 Frc consts  --      0.4931                 0.4527                 0.2879
 IR Inten    --      1.5377                 0.0722                 0.3779

                     10                     11                     12
                      A                      A                      A
 Frequencies --    427.3890               460.0712               464.6026
 Red. masses --      1.9988                 4.2691                 2.4899
 Frc consts  --      0.2151                 0.5324                 0.3167
 IR Inten    --      0.0110                10.1813                 0.4907

                     13                     14                     15
                      A                      A                      A
 Frequencies --    549.0022               555.3226               618.1753
 Red. masses --      6.0035                 5.1876                 5.6995
 Frc consts  --      1.0661                 0.9426                 1.2833
 IR Inten    --      0.0256                 1.2228                 0.1802

                     16                     17                     18
                      A                      A                      A
 Frequencies --    639.2943               692.5261               713.6905
 Red. masses --      3.7242                 4.1829                 4.0282
 Frc consts  --      0.8968                 1.1820                 1.2089
 IR Inten    --      1.1379                 0.6969                 2.2342

                     19                     20                     21
                      A                      A                      A
 Frequencies --    786.5343               801.7626               856.1340
 Red. masses --      3.7960                 2.8833                 2.6731
 Frc consts  --      1.3836                 1.0920                 1.1544
 IR Inten    --      0.2646                 0.6230                 0.8967

                     22                     23                     24
                      A                      A                      A
 Frequencies --    897.7744               904.8944               905.8076
 Red. masses --      1.5985                 1.5774                 2.9471
 Frc consts  --      0.7591                 0.7610                 1.4247
 IR Inten    --      2.5224                 0.8803                 6.1270

                     25                     26                     27
                      A                      A                      A
 Frequencies --    915.3136               951.0675               979.9649
 Red. masses --      2.6805                 2.2475                 2.3631
 Frc consts  --      1.3232                 1.1978                 1.3371
 IR Inten    --      1.7788                 0.6240                 1.5825

                     28                     29                     30
                      A                      A                      A
 Frequencies --    985.0971              1018.7776              1046.2806
 Red. masses --      2.3806                 2.0708                 2.2569
 Frc consts  --      1.3611                 1.2663                 1.4557
 IR Inten    --      1.0577                 2.7675                 0.0308

                     31                     32                     33
                      A                      A                      A
 Frequencies --   1066.5304              1078.3592              1091.8432
 Red. masses --      2.0131                 1.8981                 1.7909
 Frc consts  --      1.3491                 1.3005                 1.2579
 IR Inten    --      7.9174                24.4679                 1.2566

                     34                     35                     36
                      A                      A                      A
 Frequencies --   1116.1544              1135.2819              1145.1778
 Red. masses --      1.5760                 1.2735                 4.6611
 Frc consts  --      1.1568                 0.9671                 3.6015
 IR Inten    --      0.0236                 0.0670                 2.0890

                     37                     38                     39
                      A                      A                      A
 Frequencies --   1161.7072              1211.3577              1240.0013
 Red. masses --      1.0890                 1.1329                 1.9419
 Frc consts  --      0.8659                 0.9794                 1.7592
 IR Inten    --      0.0109                 0.1626                 8.0685

                     40                     41                     42
                      A                      A                      A
 Frequencies --   1269.2012              1274.9856              1297.2512
 Red. masses --      1.5182                 1.6410                 1.3720
 Frc consts  --      1.4409                 1.5717                 1.3604
 IR Inten    --      5.8653                 0.4033                 0.0003

                     43                     44                     45
                      A                      A                      A
 Frequencies --   1304.9007              1328.3260              1339.7233
 Red. masses --      1.5956                 1.5749                 1.6840
 Frc consts  --      1.6007                 1.6372                 1.7808
 IR Inten    --      0.2645                 4.8998                 2.1384

                     46                     47                     48
                      A                      A                      A
 Frequencies --   1352.6671              1358.3508              1379.5912
 Red. masses --      1.4613                 1.4221                 1.6424
 Frc consts  --      1.5753                 1.5460                 1.8418
 IR Inten    --      0.9126                 1.6909                 2.4679

                     49                     50                     51
                      A                      A                      A
 Frequencies --   1386.9205              1393.4427              1398.9373
 Red. masses --      1.4837                 1.4998                 1.5229
 Frc consts  --      1.6815                 1.7158                 1.7559
 IR Inten    --      0.3151                 2.4137                 1.7552

                     52                     53                     54
                      A                      A                      A
 Frequencies --   1410.9807              1509.0719              1514.1324
 Red. masses --      1.4520                 1.0834                 1.0864
 Frc consts  --      1.7032                 1.4536                 1.4675
 IR Inten    --      0.6438                 0.0001                 5.4080

                     55                     56                     57
                      A                      A                      A
 Frequencies --   1522.8685              1524.9786              1543.3032
 Red. masses --      1.0902                 1.0929                 1.0901
 Frc consts  --      1.4897                 1.4975                 1.5297
 IR Inten    --     13.0683                 9.4854                 1.3839

                     58                     59                     60
                      A                      A                      A
 Frequencies --   1826.2283              2356.0860              3039.3866
 Red. masses --     11.2912                12.6995                 1.0601
 Frc consts  --     22.1871                41.5353                 5.7697
 IR Inten    --    219.3311                12.8233                33.7046

                     61                     62                     63
                      A                      A                      A
 Frequencies --   3039.5455              3048.8587              3052.9042
 Red. masses --      1.0639                 1.0633                 1.0597
 Frc consts  --      5.7911                 5.8234                 5.8189
 IR Inten    --     10.5410                 7.2877                22.6672

                     64                     65                     66
                      A                      A                      A
 Frequencies --   3055.9664              3064.4410              3078.7761
 Red. masses --      1.0628                 1.0779                 1.1052
 Frc consts  --      5.8476                 5.9638                 6.1722
 IR Inten    --     27.8378                59.5266                 5.9949

                     67                     68                     69
                      A                      A                      A
 Frequencies --   3082.7844              3091.6730              3095.6820
 Red. masses --      1.1038                 1.1058                 1.1026
 Frc consts  --      6.1804                 6.2278                 6.2254
 IR Inten    --     46.8307                 8.9675                49.0078

                     70                     71                     72
                      A                      A                      A
 Frequencies --   3096.8871              3097.8330              3098.5414
 Red. masses --      1.0898                 1.0996                 1.0928
 Frc consts  --      6.1582                 6.2175                 6.1817
 IR Inten    --      9.4356                 9.8206                33.9935

 - Thermochemistry -
 -------------------
 Temperature   298.150 Kelvin.  Pressure   1.00000 Atm.
 Atom     1 has atomic number  8 and mass  15.99491

 Molecular mass:   175.09971 amu.
 Principal axes and moments of inertia in atomic units:
                           1         2         3
     Eigenvalues --  1289.250132449.050912656.30107
           X            0.99985   0.01705   0.00000
           Y           -0.01705   0.99985   0.00000
           Z           -0.00000  -0.00000   1.00000
 This molecule is an asymmetric top.
 Rotational symmetry number  1.
 Warning -- assumption of classical behavior for rotation
           may cause significant error
 Rotational temperatures (Kelvin)      0.06718     0.03537     0.03261
 Rotational constants (GHZ):           1.39984     0.73691     0.67942
 Zero-point vibrational energy     586774.4 (Joules/Mol)
                                  140.24246 (Kcal/Mol)
 Warning -- explicit consideration of  15 degrees of freedom as
           vibrations may cause significant error
 Vibrational temperatures:    128.97   196.67   220.05   395.52   410.16
          (Kelvin)            503.70   528.57   560.43   580.80   614.92
                              661.94   668.46   789.89   798.99   889.42
                              919.80   996.39  1026.84  1131.65  1153.56
                             1231.79  1291.70  1301.94  1303.26  1316.93
                             1368.37  1409.95  1417.34  1465.79  1505.36
                             1534.50  1551.52  1570.92  1605.90  1633.42
                             1647.66  1671.44  1742.87  1784.09  1826.10
                             1834.42  1866.46  1877.46  1911.16  1927.56
                             1946.19  1954.36  1984.92  1995.47  2004.85
                             2012.76  2030.09  2171.22  2178.50  2191.07
                             2194.10  2220.47  2627.54  3389.88  4373.00
                             4373.23  4386.63  4392.45  4396.85  4409.05
                             4429.67  4435.44  4448.23  4454.00  4455.73
                             4457.09  4458.11

 Zero-point correction=                           0.223491 (Hartree/Particle)
 Thermal correction to Energy=                    0.233251
 Thermal correction to Enthalpy=                  0.234195
 Thermal correction to Gibbs Free Energy=         0.188743
 Sum of electronic and zero-point Energies=           -556.751585
 Sum of electronic and thermal Energies=              -556.741825
 Sum of electronic and thermal Enthalpies=            -556.740881
 Sum of electronic and thermal Free Energies=         -556.786333

                     E (Thermal)             CV                S
                      KCal/Mol        Cal/Mol-Kelvin    Cal/Mol-Kelvin
 Total                  146.367             41.238             95.662
 Electronic               0.000              0.000              0.000
 Translational            0.889              2.981             41.388
 Rotational               0.889              2.981             30.507
 Vibrational            144.590             35.277             23.767
 Vibration     1          0.602              1.957              3.668
 Vibration     2          0.614              1.917              2.850
 Vibration     3          0.619              1.899              2.635
 Vibration     4          0.677              1.720              1.565
 Vibration     5          0.683              1.701              1.503
 Vibration     6          0.727              1.575              1.166
 Vibration     7          0.740              1.539              1.091
 Vibration     8          0.757              1.493              1.002
 Vibration     9          0.769              1.462              0.949
 Vibration    10          0.789              1.411              0.867
 Vibration    11          0.818              1.339              0.766
 Vibration    12          0.822              1.329              0.753
 Vibration    13          0.904              1.142              0.546
 Vibration    14          0.911              1.128              0.533
 Vibration    15          0.978              0.993              0.419

 Optimization completed.
    -- Stationary point found.
 Normal termination of Gaussian 16 at Sat Feb 24 04:01:31 2024.
