 Gaussian 16, Revision A.03,
 Gaussian 16:  EM64M-G16RevA.03 25-Dec-2016

 ---------------------
 # freq b3lyp/6-31g(d)
 ---------------------

 ---------
 good luck
 ---------
 Symbolic Z-matrix:
 Charge =  0 Multiplicity = 1

                         Standard orientation:
 ---------------------------------------------------------------------
 Center     Atomic      Atomic             Coordinates (Angstroms)
 Number     Number       Type             X           Y           Z
 ---------------------------------------------------------------------
      1          8           0        3.361372   -1.461939   -1.368547
      2          6           0        2.561938   -0.790183   -0.744901
      3          6           0        1.970148    0.519432   -1.252472
      4          6           0        0.429802    0.371645   -1.310768
      5          6           0        2.345121    1.643624   -0.254424
      6          6           0        1.800239    1.297009    1.145373
      7          6           0        2.422389   -0.028462    1.622997
      8          6           0        2.037310   -1.159595    0.638481
      9          6           0        0.495521   -1.286133    0.567447
     10          6           0       -0.157083    0.036678    0.091759
     11          6           0       -1.687268   -0.051946    0.012098
     12          6           0       -2.431462    1.065970   -0.404850
     13          6           0       -3.821610    1.026424   -0.490507
     14          6           0       -4.513238   -0.140425   -0.159383
     15          6           0       -3.794602   -1.259154    0.255844
     16          6           0       -2.400215   -1.213875    0.339980
     17          6           0        0.266064    1.158064    1.084726
     18          1           0        2.376922    0.723293   -2.248271
     19          1           0       -0.002047    1.305418   -1.691062
     20          1           0        0.150605   -0.416465   -2.021882
     21          1           0        3.435197    1.768973   -0.220281
     22          1           0        1.923808    2.595785   -0.604913
     23          1           0        2.062635    2.098730    1.847910
     24          1           0        2.060446   -0.282229    2.628578
     25          1           0        3.514705    0.060312    1.687595
     26          1           0        2.486238   -2.112426    0.936767
     27          1           0        0.118939   -1.558220    1.562382
     28          1           0        0.228425   -2.105347   -0.112287
     29          1           0       -1.919933    1.987679   -0.668912
     30          1           0       -4.364981    1.909459   -0.817143
     31          1           0       -5.597321   -0.175025   -0.225365
     32          1           0       -4.315662   -2.176635    0.517375
     33          1           0       -1.874662   -2.104377    0.666649
     34          1           0       -0.134367    0.928080    2.081178
     35          1           0       -0.178247    2.114077    0.781666
 ---------------------------------------------------------------------

 SCF Done:  E(RB3LYP) =  -695.783092099     A.U. after   14 cycles

 The electronic state is 1-A.
 Alpha  occ. eigenvalues --  -19.13124 -10.26214 -10.20853 -10.19714 -10.19545
 Alpha  occ. eigenvalues --  -10.19353 -10.19302 -10.19192 -10.19159 -10.19154
 Alpha  occ. eigenvalues --  -10.19117 -10.19037 -10.18974 -10.18870 -10.18861
 Alpha  occ. eigenvalues --  -10.18793 -10.18654  -1.02941  -0.88015  -0.85048
 Alpha  occ. eigenvalues --   -0.79100  -0.78066  -0.76510  -0.74330  -0.72644
 Alpha  occ. eigenvalues --   -0.67870  -0.64939  -0.61627  -0.61090  -0.59211
 Alpha  occ. eigenvalues --   -0.57718  -0.56438  -0.52322  -0.49573  -0.47381
 Alpha  occ. eigenvalues --   -0.46041  -0.45441  -0.45067  -0.44534  -0.43991
 Alpha  occ. eigenvalues --   -0.43328  -0.42064  -0.41905  -0.40839  -0.40650
 Alpha  occ. eigenvalues --   -0.39872  -0.39510  -0.36582  -0.36221  -0.36151
 Alpha  occ. eigenvalues --   -0.35062  -0.35042  -0.33784  -0.33698  -0.33115
 Alpha  occ. eigenvalues --   -0.30328  -0.29952  -0.29473  -0.24944  -0.24189
 Alpha  occ. eigenvalues --   -0.22862
 Alpha virt. eigenvalues --   -0.00938  -0.00223   0.00110   0.06724   0.09208
 Alpha virt. eigenvalues --    0.10995   0.11723   0.12613   0.12957   0.13255
 Alpha virt. eigenvalues --    0.14305   0.14663   0.15140   0.15349   0.15673

 Mulliken charges:
               1
     1  O   -0.459930
     2  C    0.454829
     3  C   -0.166697
     4  C   -0.288395
     5  C   -0.281184
     6  C   -0.095697
     7  C   -0.280118
     8  C   -0.167345
     9  C   -0.308351
    10  C   -0.000606
    11  C    0.165724
    12  C   -0.183499
    13  C   -0.134094
    14  C   -0.126725
    15  C   -0.134446
    16  C   -0.190821
    17  C   -0.273568
    18  H    0.143166
    19  H    0.140012
    20  H    0.150637
    21  H    0.144855
    22  H    0.136342
    23  H    0.126872
    24  H    0.138213
    25  H    0.144651
    26  H    0.142411
    27  H    0.142489
    28  H    0.149911
    29  H    0.124625
    30  H    0.128767
    31  H    0.128791
    32  H    0.129127
    33  H    0.129414
    34  H    0.137136
    35  H    0.133503
 Sum of Mulliken charges =  -0.00000

 Dipole moment (field-independent basis, Debye):
    X=             -1.9099    Y=              1.7994    Z=              1.6617  Tot=              3.1059
 Quadrupole moment (field-independent basis, Debye-Ang):
   XX=           -106.5411   YY=            -98.4569   ZZ=           -103.1725
   XY=              7.3913   XZ=              7.2216   YZ=             -5.4017

  Exact polarizability: 199.265   0.240 147.793   1.251 -10.241 115.554
 Approx polarizability: 271.329  -4.773 249.417  -2.313 -20.410 180.953

                      1                      2                      3
                      A                      A                      A
 Frequencies --     50.7450                75.0688               107.7278
 Red. masses --      3.8443                 6.7937                 4.6776
 Frc consts  --      0.0058                 0.0226                 0.0320
 IR Inten    --      0.2141                 1.8780                 1.4951

                      4                      5                      6
                      A                      A                      A
 Frequencies --    141.7928               259.4586               273.5267
 Red. masses --      3.7485                 2.9955                 3.9388
 Frc consts  --      0.0444                 0.1188                 0.1736
 IR Inten    --      0.4095                 0.1956                 0.2815

                      7                      8                      9
                      A                      A                      A
 Frequencies --    282.5015               291.5072               347.7279
 Red. masses --      2.6450                 3.0798                 3.6641
 Frc consts  --      0.1244                 0.1542                 0.2610
 IR Inten    --      0.8301                 0.0117                 0.7513

                     10                     11                     12
                      A                      A                      A
 Frequencies --    376.0917               391.0435               415.2531
 Red. masses --      4.7991                 2.5813                 3.0366
 Frc consts  --      0.3999                 0.2326                 0.3085
 IR Inten    --      0.9947                 0.0364                 0.2121

                     13                     14                     15
                      A                      A                      A
 Frequencies --    417.8642               445.0187               445.8207
 Red. masses --      3.0145                 2.1244                 1.8981
 Frc consts  --      0.3101                 0.2479                 0.2223
 IR Inten    --      0.0408                 3.2300                 1.0775

                     16                     17                     18
                      A                      A                      A
 Frequencies --    479.4987               544.7410               614.5490
 Red. masses --      3.6344                 3.1414                 5.2096
 Frc consts  --      0.4923                 0.5492                 1.1592
 IR Inten    --      7.2435                 5.9710                 1.4749

                     19                     20                     21
                      A                      A                      A
 Frequencies --    626.3713               631.5238               642.7779
 Red. masses --      6.8661                 4.6651                 4.4877
 Frc consts  --      1.5872                 1.0962                 1.0924
 IR Inten    --      1.7393                 0.7481                 1.0850

                     22                     23                     24
                      A                      A                      A
 Frequencies --    705.0475               715.9359               719.3270
 Red. masses --      4.4880                 1.8111                 3.7859
 Frc consts  --      1.3144                 0.5469                 1.1542
 IR Inten    --      0.2185                25.2406                 2.2457

                     25                     26                     27
                      A                      A                      A
 Frequencies --    770.5219               789.2562               805.5837
 Red. masses --      2.0630                 3.6301                 2.8125
 Frc consts  --      0.7216                 1.3323                 1.0754
 IR Inten    --     21.9091                 0.8139                 2.9777

                     28                     29                     30
                      A                      A                      A
 Frequencies --    856.5741               860.9482               869.6384
 Red. masses --      1.5171                 1.9358                 3.4048
 Frc consts  --      0.6558                 0.8454                 1.5171
 IR Inten    --      0.2281                 0.4178                 0.9999

                     31                     32                     33
                      A                      A                      A
 Frequencies --    896.0838               903.8310               908.2757
 Red. masses --      1.5970                 1.6120                 1.8192
 Frc consts  --      0.7555                 0.7759                 0.8842
 IR Inten    --      2.7644                 0.4874                 4.4524

                     34                     35                     36
                      A                      A                      A
 Frequencies --    931.5682               957.6653               967.0985
 Red. masses --      1.6950                 2.1799                 1.3632
 Frc consts  --      0.8667                 1.1779                 0.7512
 IR Inten    --      1.5208                 0.3018                 0.0420

                     37                     38                     39
                      A                      A                      A
 Frequencies --    978.1171               984.7527               994.6215
 Red. masses --      2.2725                 2.1426                 1.2606
 Frc consts  --      1.2809                 1.2242                 0.7348
 IR Inten    --      2.2446                 1.0939                 0.0612

                     40                     41                     42
                      A                      A                      A
 Frequencies --   1016.5570              1018.5188              1040.1217
 Red. masses --      2.9071                 3.2253                 5.9386
 Frc consts  --      1.7700                 1.9713                 3.7853
 IR Inten    --      1.8226                 2.0664                 4.9410

                     43                     44                     45
                      A                      A                      A
 Frequencies --   1051.3340              1069.3963              1071.5776
 Red. masses --      2.2561                 2.0571                 2.0693
 Frc consts  --      1.4692                 1.3861                 1.4000
 IR Inten    --      0.0288                 2.0398                 4.8336

                     46                     47                     48
                      A                      A                      A
 Frequencies --   1079.9920              1096.3024              1117.2912
 Red. masses --      1.8610                 1.7615                 1.6484
 Frc consts  --      1.2789                 1.2474                 1.2124
 IR Inten    --     24.3927                 0.6918                 2.4272

                     49                     50                     51
                      A                      A                      A
 Frequencies --   1125.1154              1137.5807              1164.7553
 Red. masses --      1.4331                 1.2553                 1.1109
 Frc consts  --      1.0689                 0.9571                 0.8879
 IR Inten    --      0.4847                 0.2919                 0.0335

                     52                     53                     54
                      A                      A                      A
 Frequencies --   1194.9035              1209.8633              1225.4241
 Red. masses --      1.0943                 1.1495                 1.5765
 Frc consts  --      0.9206                 0.9913                 1.3948
 IR Inten    --      0.0541                 0.1980                 0.5677

                     55                     56                     57
                      A                      A                      A
 Frequencies --   1231.6676              1241.1235              1269.6450
 Red. masses --      1.8749                 1.9663                 1.5270
 Frc consts  --      1.6758                 1.7846                 1.4503
 IR Inten    --      2.8269                 6.5794                 5.7812

                     58                     59                     60
                      A                      A                      A
 Frequencies --   1274.6979              1297.4595              1306.5702
 Red. masses --      1.6142                 1.4196                 1.6298
 Frc consts  --      1.5454                 1.4080                 1.6392
 IR Inten    --      1.4601                 0.6254                 0.6979

                     61                     62                     63
                      A                      A                      A
 Frequencies --   1330.0087              1338.3807              1345.7913
 Red. masses --      1.5820                 1.9541                 3.1832
 Frc consts  --      1.6488                 2.0623                 3.3968
 IR Inten    --      3.8828                 4.7926                 1.0150

                     64                     65                     66
                      A                      A                      A
 Frequencies --   1352.0109              1358.8550              1376.2765
 Red. masses --      1.4428                 1.4706                 1.4587
 Frc consts  --      1.5539                 1.5999                 1.6279
 IR Inten    --      0.9357                 1.0353                 1.7112

                     67                     68                     69
                      A                      A                      A
 Frequencies --   1382.6753              1388.5362              1395.8817
 Red. masses --      1.7407                 1.4765                 1.5072
 Frc consts  --      1.9608                 1.6773                 1.7303
 IR Inten    --      1.4223                 1.0802                 1.8951

                     70                     71                     72
                      A                      A                      A
 Frequencies --   1399.9056              1410.7342              1492.7455
 Red. masses --      1.5448                 1.4460                 2.2396
 Frc consts  --      1.7837                 1.6956                 2.9403
 IR Inten    --      1.2106                 0.3695                 4.7511

                     73                     74                     75
                      A                      A                      A
 Frequencies --   1508.9465              1512.7576              1522.0535
 Red. masses --      1.0864                 1.0907                 1.0964
 Frc consts  --      1.4575                 1.4707                 1.4965
 IR Inten    --      0.3930                 3.1651                 9.1637

                     76                     77                     78
                      A                      A                      A
 Frequencies --   1526.2558              1542.8181              1549.2351
 Red. masses --      1.0958                 1.0946                 2.0594
 Frc consts  --      1.5040                 1.5351                 2.9122
 IR Inten    --      7.4053                 0.3836                16.6931

                     79                     80                     81
                      A                      A                      A
 Frequencies --   1639.6566              1664.0094              1821.4747
 Red. masses --      5.2329                 5.4659                11.2202
 Frc consts  --      8.2890                 8.9171                21.9330
 IR Inten    --      2.0919                 8.3744               238.4181

                     82                     83                     84
                      A                      A                      A
 Frequencies --   3032.0410              3032.9455              3034.1527
 Red. masses --      1.0656                 1.0595                 1.0604
 Frc consts  --      5.7720                 5.7420                 5.7516
 IR Inten    --     13.4238                 7.7619                34.8576

                     85                     86                     87
                      A                      A                      A
 Frequencies --   3037.9926              3045.6746              3054.6367
 Red. masses --      1.0628                 1.0615                 1.0774
 Frc consts  --      5.7795                 5.8015                 5.9229
 IR Inten    --     33.0741                43.6947                74.1420

                     88                     89                     90
                      A                      A                      A
 Frequencies --   3071.2081              3075.3106              3076.3445
 Red. masses --      1.1050                 1.1039                 1.1045
 Frc consts  --      6.1409                 6.1512                 6.1585
 IR Inten    --      4.1238                48.1022                23.4623

                     91                     92                     93
                      A                      A                      A
 Frequencies --   3080.9883              3085.3400              3088.2173
 Red. masses --      1.1035                 1.1042                 1.0862
 Frc consts  --      6.1718                 6.1929                 6.1035
 IR Inten    --     37.4791                35.6454                41.8175

                     94                     95                     96
                      A                      A                      A
 Frequencies --   3090.2252              3177.7826              3185.2832
 Red. masses --      1.0868                 1.0846                 1.0876
 Frc consts  --      6.1146                 6.4528                 6.5017
 IR Inten    --     20.7080                 5.0919                 3.3720

                     97                     98                     99
                      A                      A                      A
 Frequencies --   3195.2934              3206.6405              3220.9788
 Red. masses --      1.0922                 1.0963                 1.0919
 Frc consts  --      6.5699                 6.6417                 6.6742
 IR Inten    --     34.8116                32.4012                10.6663

 - Thermochemistry -
 -------------------
 Temperature   298.150 Kelvin.  Pressure   1.00000 Atm.
 Atom     1 has atomic number  8 and mass  15.99491

 Molecular mass:   226.13577 amu.
 Principal axes and moments of inertia in atomic units:
                           1         2         3
     Eigenvalues --  1625.673705783.515696055.08537
           X            0.99989   0.01155   0.00880
           Y           -0.01063   0.99514  -0.09794
           Z           -0.00989   0.09784   0.99515
 This molecule is an asymmetric top.
 Rotational symmetry number  1.
 Warning -- assumption of classical behavior for rotation
           may cause significant error
 Rotational temperatures (Kelvin)      0.05328     0.01498     0.01430
 Rotational constants (GHZ):           1.11015     0.31205     0.29805
 Zero-point vibrational energy     803683.7 (Joules/Mol)
                                  192.08501 (Kcal/Mol)
 Warning -- explicit consideration of  18 degrees of freedom as
           vibrations may cause significant error
 Vibrational temperatures:     73.01   108.01   155.00   204.01   373.30
          (Kelvin)            393.54   406.46   419.41   500.30   541.11
                              562.62   597.46   601.21   640.28   641.44
                              689.89   783.76   884.20   901.21   908.62
                              924.81  1014.41  1030.07  1034.95  1108.61
                             1135.56  1159.06  1232.42  1238.71  1251.22
                             1289.26  1300.41  1306.81  1340.32  1377.87
                             1391.44  1407.29  1416.84  1431.04  1462.60
                             1465.42  1496.50  1512.64  1538.62  1541.76
                             1553.87  1577.33  1607.53  1618.79  1636.72
                             1675.82  1719.20  1740.72  1763.11  1772.09
                             1785.70  1826.74  1834.01  1866.75  1879.86
                             1913.59  1925.63  1936.29  1945.24  1955.09
                             1980.15  1989.36  1997.79  2008.36  2014.15
                             2029.73  2147.73  2171.04  2176.52  2189.90
                             2195.94  2219.77  2229.00  2359.10  2394.14
                             2620.70  4362.43  4363.73  4365.47  4370.99
                             4382.05  4394.94  4418.78  4424.69  4426.17
                             4432.85  4439.12  4443.26  4446.14  4572.12
                             4582.91  4597.31  4613.64  4634.27

 Zero-point correction=                           0.306107 (Hartree/Particle)
 Thermal correction to Energy=                    0.318631
 Thermal correction to Enthalpy=                  0.319575
 Thermal correction to Gibbs Free Energy=         0.267448
 Sum of electronic and zero-point Energies=           -695.476985
 Sum of electronic and thermal Energies=              -695.464461
 Sum of electronic and thermal Enthalpies=            -695.463517
 Sum of electronic and thermal Free Energies=         -695.515644

                     E (Thermal)             CV                S
                      KCal/Mol        Cal/Mol-Kelvin    Cal/Mol-Kelvin
 Total                  199.944             54.247            109.709
 Electronic               0.000              0.000              0.000
 Translational            0.889              2.981             42.150
 Rotational               0.889              2.981             32.410
 Vibrational            198.166             48.285             35.150
 Vibration     1          0.595              1.977              4.788
 Vibration     2          0.599              1.966              4.016
 Vibration     3          0.606              1.943              3.309
 Vibration     4          0.615              1.911              2.780
 Vibration     5          0.668              1.747              1.665
 Vibration     6          0.676              1.722              1.574
 Vibration     7          0.682              1.706              1.518
 Vibration     8          0.687              1.690              1.465
 Vibration     9          0.725              1.580              1.176
 Vibration    10          0.747              1.521              1.055
 Vibration    11          0.759              1.489              0.996
 Vibration    12          0.779              1.437              0.908
 Vibration    13          0.781              1.431              0.899
 Vibration    14          0.804              1.372              0.811
 Vibration    15          0.805              1.370              0.809
 Vibration    16          0.836              1.296              0.711
 Vibration    17          0.900              1.151              0.555
 Vibration    18          0.974              1.001              0.425

 Normal termination of Gaussian 16 at Fri Feb 23 23:37:33 2024.
