 Gaussian 16, Revision A.03,
 Gaussian 16:  EM64M-G16RevA.03 25-Dec-2016

 ---------------------
 # freq b3lyp/6-31g(d)
 ---------------------

 ---------
 good luck
 ---------
 Symbolic Z-matrix:
 Charge =  0 Multiplicity = 1

                         Standard orientation:
 ---------------------------------------------------------------------
 Center     Atomic      Atomic             Coordinates (Angstroms)
 Number     Number       Type             X           Y           Z
 ---------------------------------------------------------------------
      1          8           0        3.250589   -2.080127   -0.000547
      2          6           0        2.506256   -1.118139   -0.000283
      3          6           0        1.984493   -0.448380   -1.268067
      4          6           0        0.437833   -0.528580   -1.261859
      5          6           0        2.424169    1.035380   -1.256740
      6          6           0        1.861761    1.724958    0.000635
      7          6           0        2.423873    1.034489    1.257657
      8          6           0        1.984204   -0.449286    1.267859
      9          6           0        0.437548   -0.529501    1.261242
     10          6           0       -0.156334    0.162888   -0.000126
     11          6           0       -1.685810    0.030414   -0.000308
     12          6           0       -2.278612   -1.244780    0.000068
     13          6           0       -3.662708   -1.405333    0.000197
     14          6           0       -4.500017   -0.288035    0.000025
     15          6           0       -3.932424    0.984062   -0.000177
     16          6           0       -2.543461    1.139451   -0.000279
     17          6           0        0.322105    1.636701    0.000452
     18          1           0        2.395005   -0.977216   -2.134367
     19          1           0        0.123820   -1.578116   -1.302443
     20          1           0        0.042400   -0.046549   -2.165873
     21          1           0        3.519518    1.106857   -1.274996
     22          1           0        2.054651    1.530815   -2.164809
     23          1           0        2.159036    2.781625    0.001052
     24          1           0        3.519217    1.105951    1.276213
     25          1           0        2.054146    1.529295    2.165985
     26          1           0        2.394539   -0.978712    2.133883
     27          1           0        0.123512   -1.579062    1.300930
     28          1           0        0.041889   -0.048164    2.165522
     29          1           0       -1.652098   -2.132681    0.000297
     30          1           0       -4.087164   -2.406024    0.000441
     31          1           0       -5.579821   -0.409738    0.000146
     32          1           0       -4.568466    1.865617   -0.000219
     33          1           0       -2.136742    2.144620   -0.000370
     34          1           0       -0.072636    2.157629   -0.881991
     35          1           0       -0.072770    2.157002    0.883208
 ---------------------------------------------------------------------

 SCF Done:  E(RB3LYP) =  -695.783229693     A.U. after   14 cycles

 The electronic state is 1-A.
 Alpha  occ. eigenvalues --  -19.13145 -10.26244 -10.20851 -10.19693 -10.19601
 Alpha  occ. eigenvalues --  -10.19301 -10.19299 -10.19158 -10.19157 -10.19109
 Alpha  occ. eigenvalues --  -10.19107 -10.18993 -10.18962 -10.18843 -10.18815
 Alpha  occ. eigenvalues --  -10.18774 -10.18695  -1.02961  -0.88013  -0.85029
 Alpha  occ. eigenvalues --   -0.79093  -0.78025  -0.76561  -0.74262  -0.72646
 Alpha  occ. eigenvalues --   -0.67764  -0.65201  -0.61498  -0.60321  -0.60035
 Alpha  occ. eigenvalues --   -0.57566  -0.56375  -0.52455  -0.49262  -0.47447
 Alpha  occ. eigenvalues --   -0.46127  -0.45551  -0.44751  -0.44356  -0.44036
 Alpha  occ. eigenvalues --   -0.43872  -0.42045  -0.41931  -0.40859  -0.40280
 Alpha  occ. eigenvalues --   -0.40032  -0.39324  -0.36533  -0.36509  -0.36402
 Alpha  occ. eigenvalues --   -0.35045  -0.34198  -0.33993  -0.33632  -0.33250
 Alpha  occ. eigenvalues --   -0.30723  -0.29846  -0.29299  -0.24917  -0.24174
 Alpha  occ. eigenvalues --   -0.22876
 Alpha virt. eigenvalues --   -0.00871  -0.00258   0.00080   0.06817   0.09102
 Alpha virt. eigenvalues --    0.11358   0.11667   0.12089   0.13218   0.13360
 Alpha virt. eigenvalues --    0.14011   0.14742   0.15009   0.15675   0.16360

 Mulliken charges:
               1
     1  O   -0.460200
     2  C    0.453705
     3  C   -0.167002
     4  C   -0.288317
     5  C   -0.279874
     6  C   -0.096500
     7  C   -0.279879
     8  C   -0.167003
     9  C   -0.288328
    10  C   -0.000542
    11  C    0.164796
    12  C   -0.185840
    13  C   -0.134207
    14  C   -0.126756
    15  C   -0.134691
    16  C   -0.190365
    17  C   -0.293695
    18  H    0.143144
    19  H    0.147015
    20  H    0.143672
    21  H    0.144203
    22  H    0.138078
    23  H    0.126112
    24  H    0.144203
    25  H    0.138079
    26  H    0.143144
    27  H    0.147016
    28  H    0.143682
    29  H    0.128801
    30  H    0.129882
    31  H    0.128665
    32  H    0.128215
    33  H    0.127879
    34  H    0.136453
    35  H    0.136457
 Sum of Mulliken charges =  -0.00000

 Dipole moment (field-independent basis, Debye):
    X=             -1.7686    Y=              2.5087    Z=              0.0010  Tot=              3.0695
 Quadrupole moment (field-independent basis, Debye-Ang):
   XX=           -105.5149   YY=           -101.6390   ZZ=           -100.5445
   XY=             10.0932   XZ=              0.0015   YZ=             -0.0031

  Exact polarizability: 199.020  -1.769 153.438  -0.004  -0.006 110.230
 Approx polarizability: 271.018 -11.987 262.338  -0.011  -0.011 168.527

                      1                      2                      3
                      A                      A                      A
 Frequencies --     50.2956                79.3588                91.6387
 Red. masses --      3.8730                 9.6827                 3.8302
 Frc consts  --      0.0058                 0.0359                 0.0190
 IR Inten    --      0.1332                 3.0153                 0.0193

                      4                      5                      6
                      A                      A                      A
 Frequencies --    162.0290               245.0969               272.0938
 Red. masses --      3.9114                 2.7723                 5.3446
 Frc consts  --      0.0605                 0.0981                 0.2331
 IR Inten    --      0.5276                 0.5129                 0.2280

                      7                      8                      9
                      A                      A                      A
 Frequencies --    279.7239               315.5437               323.0324
 Red. masses --      2.3410                 3.3179                 2.9643
 Frc consts  --      0.1079                 0.1946                 0.1822
 IR Inten    --      0.7036                 0.0750                 0.7690

                     10                     11                     12
                      A                      A                      A
 Frequencies --    377.4248               399.0640               417.3129
 Red. masses --      3.7790                 4.7866                 2.9974
 Frc consts  --      0.3172                 0.4491                 0.3076
 IR Inten    --      1.0239                 0.0199                 0.0177

                     13                     14                     15
                      A                      A                      A
 Frequencies --    425.7449               442.9908               453.2156
 Red. masses --      2.2896                 1.8749                 2.1244
 Frc consts  --      0.2445                 0.2168                 0.2571
 IR Inten    --      0.2153                 0.1031                 0.3135

                     16                     17                     18
                      A                      A                      A
 Frequencies --    465.9487               547.2778               612.0163
 Red. masses --      4.3194                 3.0786                 5.3189
 Frc consts  --      0.5525                 0.5433                 1.1738
 IR Inten    --     13.0012                 3.4987                 0.6926

                     19                     20                     21
                      A                      A                      A
 Frequencies --    625.7813               637.0510               637.9951
 Red. masses --      6.8486                 3.4759                 6.3255
 Frc consts  --      1.5801                 0.8311                 1.5170
 IR Inten    --      2.0787                 2.3875                 0.0552

                     22                     23                     24
                      A                      A                      A
 Frequencies --    705.0993               715.8497               716.2217
 Red. masses --      4.4582                 3.9420                 1.7727
 Frc consts  --      1.3059                 1.1902                 0.5358
 IR Inten    --      0.2907                 2.6652                24.9203

                     25                     26                     27
                      A                      A                      A
 Frequencies --    773.5320               788.3673               806.1459
 Red. masses --      1.9750                 3.8006                 2.9575
 Frc consts  --      0.6963                 1.3917                 1.1324
 IR Inten    --     24.6373                 0.4424                 0.5627

                     28                     29                     30
                      A                      A                      A
 Frequencies --    856.5691               862.6726               867.6805
 Red. masses --      1.4416                 2.0061                 3.4608
 Frc consts  --      0.6232                 0.8796                 1.5351
 IR Inten    --      0.2054                 0.1312                 1.2993

                     31                     32                     33
                      A                      A                      A
 Frequencies --    901.0609               901.7305               918.0525
 Red. masses --      1.5777                 1.6076                 2.3786
 Frc consts  --      0.7547                 0.7702                 1.1812
 IR Inten    --      0.2961                 2.8186                 6.6248

                     34                     35                     36
                      A                      A                      A
 Frequencies --    920.4636               959.8542               968.0027
 Red. masses --      1.4766                 2.0547                 1.3488
 Frc consts  --      0.7371                 1.1153                 0.7446
 IR Inten    --      0.4370                 0.0408                 0.0161

                     37                     38                     39
                      A                      A                      A
 Frequencies --    977.7731               985.4948               994.7271
 Red. masses --      2.2790                 2.2030                 1.2509
 Frc consts  --      1.2837                 1.2606                 0.7292
 IR Inten    --      1.0621                 1.6405                 0.0432

                     40                     41                     42
                      A                      A                      A
 Frequencies --   1017.6223              1017.9709              1040.7279
 Red. masses --      5.9398                 2.0674                 6.2473
 Frc consts  --      3.6240                 1.2622                 3.9868
 IR Inten    --      1.4964                 2.5843                 4.8127

                     43                     44                     45
                      A                      A                      A
 Frequencies --   1049.6443              1069.6512              1072.3220
 Red. masses --      2.2066                 2.1486                 2.0261
 Frc consts  --      1.4324                 1.4484                 1.3726
 IR Inten    --      0.1021                 1.5317                 1.3372

                     46                     47                     48
                      A                      A                      A
 Frequencies --   1078.2705              1097.3532              1116.6028
 Red. masses --      1.7861                 1.7901                 1.6551
 Frc consts  --      1.2235                 1.2700                 1.2158
 IR Inten    --     29.9688                 1.3740                 1.6473

                     49                     50                     51
                      A                      A                      A
 Frequencies --   1125.0184              1140.4210              1163.6928
 Red. masses --      1.4122                 1.3062                 1.1019
 Frc consts  --      1.0531                 1.0009                 0.8792
 IR Inten    --      1.1978                 0.0648                 0.0049

                     52                     53                     54
                      A                      A                      A
 Frequencies --   1194.9167              1205.9194              1225.6807
 Red. masses --      1.0938                 1.1889                 1.3796
 Frc consts  --      0.9201                 1.0187                 1.2211
 IR Inten    --      0.0614                 0.8252                 0.5516

                     55                     56                     57
                      A                      A                      A
 Frequencies --   1235.9951              1239.6309              1269.2928
 Red. masses --      2.1619                 1.9291                 1.5322
 Frc consts  --      1.9459                 1.7466                 1.4544
 IR Inten    --      1.1505                 7.7124                 6.2734

                     58                     59                     60
                      A                      A                      A
 Frequencies --   1275.3705              1297.5234              1303.4686
 Red. masses --      1.6665                 1.3505                 1.6431
 Frc consts  --      1.5971                 1.3396                 1.6448
 IR Inten    --      0.7118                 0.0365                 0.0147

                     61                     62                     63
                      A                      A                      A
 Frequencies --   1330.6295              1337.2911              1345.8418
 Red. masses --      1.5709                 2.1862                 2.5949
 Frc consts  --      1.6388                 2.3036                 2.7692
 IR Inten    --      5.3900                 4.2873                 2.9425

                     64                     65                     66
                      A                      A                      A
 Frequencies --   1353.7350              1359.2655              1377.0710
 Red. masses --      1.4689                 1.4221                 1.5675
 Frc consts  --      1.5860                 1.5480                 1.7514
 IR Inten    --      2.2948                 0.9680                 1.1873

                     67                     68                     69
                      A                      A                      A
 Frequencies --   1381.2950              1389.1320              1396.1607
 Red. masses --      1.6714                 1.5105                 1.4972
 Frc consts  --      1.8789                 1.7173                 1.7195
 IR Inten    --      2.9584                 0.0590                 1.7007

                     70                     71                     72
                      A                      A                      A
 Frequencies --   1398.2455              1413.2005              1492.8121
 Red. masses --      1.5298                 1.4548                 2.2410
 Frc consts  --      1.7622                 1.7118                 2.9424
 IR Inten    --      1.5813                 0.3054                 5.0718

                     73                     74                     75
                      A                      A                      A
 Frequencies --   1508.2629              1515.2101              1522.2015
 Red. masses --      1.0840                 1.0955                 1.0921
 Frc consts  --      1.4528                 1.4818                 1.4909
 IR Inten    --      0.0647                 3.7814                10.7325

                     76                     77                     78
                      A                      A                      A
 Frequencies --   1523.9118              1543.1415              1549.1909
 Red. masses --      1.0966                 1.0929                 2.0719
 Frc consts  --      1.5004                 1.5333                 2.9297
 IR Inten    --      5.7377                 0.1349                16.5512

                     79                     80                     81
                      A                      A                      A
 Frequencies --   1639.8261              1663.9952              1820.4156
 Red. masses --      5.2381                 5.4635                11.2322
 Frc consts  --      8.2989                 8.9131                21.9309
 IR Inten    --      1.9865                 8.4523               232.4862

                     82                     83                     84
                      A                      A                      A
 Frequencies --   3028.7329              3032.9895              3033.8275
 Red. masses --      1.0611                 1.0647                 1.0597
 Frc consts  --      5.7347                 5.7703                 5.7465
 IR Inten    --     17.3123                11.8084                30.1088

                     85                     86                     87
                      A                      A                      A
 Frequencies --   3041.2825              3044.7078              3054.2771
 Red. masses --      1.0618                 1.0642                 1.0789
 Frc consts  --      5.7864                 5.8125                 5.9298
 IR Inten    --     36.1800                34.8020                77.3374

                     88                     89                     90
                      A                      A                      A
 Frequencies --   3069.6248              3073.5766              3075.7845
 Red. masses --      1.1049                 1.1046                 1.1041
 Frc consts  --      6.1338                 6.1483                 6.1540
 IR Inten    --      3.8311                38.0692                59.2297

                     91                     92                     93
                      A                      A                      A
 Frequencies --   3085.1091              3087.8834              3088.4652
 Red. masses --      1.0996                 1.0971                 1.0892
 Frc consts  --      6.1665                 6.1634                 6.1214
 IR Inten    --     35.6582                19.3563                19.2093

                     94                     95                     96
                      A                      A                      A
 Frequencies --   3090.6901              3178.3133              3185.5148
 Red. masses --      1.0912                 1.0845                 1.0877
 Frc consts  --      6.1412                 6.4549                 6.5033
 IR Inten    --     37.7557                 4.4640                 3.9488

                     97                     98                     99
                      A                      A                      A
 Frequencies --   3195.7806              3206.9270              3221.3343
 Red. masses --      1.0921                 1.0964                 1.0918
 Frc consts  --      6.5717                 6.6434                 6.6749
 IR Inten    --     33.9567                31.6278                11.1451

 - Thermochemistry -
 -------------------
 Temperature   298.150 Kelvin.  Pressure   1.00000 Atm.
 Atom     1 has atomic number  8 and mass  15.99491

 Molecular mass:   226.13577 amu.
 Principal axes and moments of inertia in atomic units:
                           1         2         3
     Eigenvalues --  1645.638455602.766386169.47461
           X            0.99988   0.01540   0.00000
           Y           -0.01540   0.99988  -0.00003
           Z           -0.00000   0.00003   1.00000
 This molecule is an asymmetric top.
 Rotational symmetry number  1.
 Warning -- assumption of classical behavior for rotation
           may cause significant error
 Rotational temperatures (Kelvin)      0.05263     0.01546     0.01404
 Rotational constants (GHZ):           1.09668     0.32212     0.29253
 Zero-point vibrational energy     803727.1 (Joules/Mol)
                                  192.09540 (Kcal/Mol)
 Warning -- explicit consideration of  18 degrees of freedom as
           vibrations may cause significant error
 Vibrational temperatures:     72.36   114.18   131.85   233.12   352.64
          (Kelvin)            391.48   402.46   454.00   464.77   543.03
                              574.16   600.42   612.55   637.36   652.08
                              670.40   787.41   880.55   900.36   916.57
                              917.93  1014.48  1029.95  1030.48  1112.94
                             1134.28  1159.86  1232.41  1241.19  1248.40
                             1296.43  1297.39  1320.87  1324.34  1381.02
                             1392.74  1406.80  1417.91  1431.19  1464.13
                             1464.63  1497.38  1510.20  1538.99  1542.83
                             1551.39  1578.85  1606.54  1618.65  1640.81
                             1674.29  1719.22  1735.05  1763.48  1778.32
                             1783.55  1826.23  1834.97  1866.85  1875.40
                             1914.48  1924.06  1936.37  1947.72  1955.68
                             1981.30  1987.38  1998.65  2008.76  2011.76
                             2033.28  2147.82  2170.05  2180.05  2190.11
                             2192.57  2220.24  2228.94  2359.34  2394.12
                             2619.17  4357.67  4363.80  4365.00  4375.73
                             4380.66  4394.42  4416.51  4422.19  4425.37
                             4438.78  4442.78  4443.61  4446.81  4572.88
                             4583.25  4598.02  4614.05  4634.78

 Zero-point correction=                           0.306124 (Hartree/Particle)
 Thermal correction to Energy=                    0.318646
 Thermal correction to Enthalpy=                  0.319591
 Thermal correction to Gibbs Free Energy=         0.267449
 Sum of electronic and zero-point Energies=           -695.477106
 Sum of electronic and thermal Energies=              -695.464583
 Sum of electronic and thermal Enthalpies=            -695.463639
 Sum of electronic and thermal Free Energies=         -695.515780

                     E (Thermal)             CV                S
                      KCal/Mol        Cal/Mol-Kelvin    Cal/Mol-Kelvin
 Total                  199.954             54.241            109.740
 Electronic               0.000              0.000              0.000
 Translational            0.889              2.981             42.150
 Rotational               0.889              2.981             32.409
 Vibrational            198.176             48.279             35.181
 Vibration     1          0.595              1.977              4.806
 Vibration     2          0.600              1.963              3.907
 Vibration     3          0.602              1.955              3.625
 Vibration     4          0.622              1.889              2.526
 Vibration     5          0.660              1.771              1.766
 Vibration     6          0.675              1.725              1.583
 Vibration     7          0.680              1.711              1.535
 Vibration     8          0.703              1.644              1.333
 Vibration     9          0.708              1.629              1.295
 Vibration    10          0.748              1.518              1.049
 Vibration    11          0.765              1.472              0.966
 Vibration    12          0.780              1.433              0.901
 Vibration    13          0.788              1.414              0.873
 Vibration    14          0.803              1.376              0.817
 Vibration    15          0.812              1.354              0.786
 Vibration    16          0.823              1.326              0.749
 Vibration    17          0.902              1.146              0.550
 Vibration    18          0.971              1.006              0.429

 Normal termination of Gaussian 16 at Fri Feb 23 23:49:59 2024.
