 Gaussian 16, Revision A.03,
 Gaussian 16:  EM64M-G16RevA.03 25-Dec-2016

 ---------------------
 # freq b3lyp/6-31g(d)
 ---------------------

 ---------
 good luck
 ---------
 Symbolic Z-matrix:
 Charge =  0 Multiplicity = 1

                         Standard orientation:
 ---------------------------------------------------------------------
 Center     Atomic      Atomic             Coordinates (Angstroms)
 Number     Number       Type             X           Y           Z
 ---------------------------------------------------------------------
      1          8           0        2.692574   -1.873804    0.404742
      2          6           0        1.873607   -0.993694    0.220696
      3          6           0        1.410604   -0.539425   -1.160886
      4          6           0       -0.120225   -0.746396   -1.254295
      5          6           0        1.743118    0.961702   -1.321433
      6          6           0        1.022910    1.754846   -0.217627
      7          6           0        1.521239    1.283767    1.162811
      8          6           0        1.192861   -0.218283    1.345565
      9          6           0       -0.338086   -0.436855    1.237447
     10          6           0       -0.870006    0.040110   -0.145210
     11          7           0       -2.333547   -0.142469   -0.332482
     12          6           0       -2.821033   -1.511398   -0.175677
     13          6           0       -3.194466    0.765243    0.421243
     14          6           0       -0.500703    1.536541   -0.312617
     15          1           0        1.926364   -1.143014   -1.914586
     16          1           0       -0.486722   -0.415633   -2.234195
     17          1           0       -0.329307   -1.818710   -1.178711
     18          1           0        2.827947    1.120682   -1.264384
     19          1           0        1.418968    1.301788   -2.314146
     20          1           0        1.236540    2.824982   -0.336164
     21          1           0        1.038578    1.861545    1.962777
     22          1           0        2.602718    1.447876    1.256196
     23          1           0        1.572428   -0.591727    2.302232
     24          1           0       -0.565789   -1.499529    1.385780
     25          1           0       -0.837222    0.112916    2.046544
     26          1           0       -3.857758   -1.554815   -0.527679
     27          1           0       -2.811853   -1.878447    0.867627
     28          1           0       -2.244666   -2.210236   -0.784800
     29          1           0       -4.235224    0.549821    0.156701
     30          1           0       -3.109562    0.666925    1.520627
     31          1           0       -3.005003    1.806797    0.154318
     32          1           0       -0.980296    2.136485    0.468721
     33          1           0       -0.884825    1.893060   -1.277521
 ---------------------------------------------------------------------

 SCF Done:  E(RB3LYP) =  -598.689653700     A.U. after   14 cycles

 The electronic state is 1-A.
 Alpha  occ. eigenvalues --  -19.13079 -14.32447 -10.26155 -10.22533 -10.20142
 Alpha  occ. eigenvalues --  -10.20081 -10.19497 -10.19286 -10.19178 -10.19047
 Alpha  occ. eigenvalues --  -10.18929 -10.18705 -10.18621 -10.18340  -1.02893
 Alpha  occ. eigenvalues --   -0.92060  -0.86310  -0.77906  -0.77095  -0.75629
 Alpha  occ. eigenvalues --   -0.70351  -0.67617  -0.64881  -0.63513  -0.60179
 Alpha  occ. eigenvalues --   -0.57731  -0.55726  -0.51272  -0.47213  -0.46149
 Alpha  occ. eigenvalues --   -0.45635  -0.45457  -0.44868  -0.44366  -0.43361
 Alpha  occ. eigenvalues --   -0.42937  -0.41288  -0.40548  -0.40138  -0.39459
 Alpha  occ. eigenvalues --   -0.38005  -0.37530  -0.36958  -0.36179  -0.35007
 Alpha  occ. eigenvalues --   -0.33984  -0.33381  -0.33362  -0.31083  -0.30373
 Alpha  occ. eigenvalues --   -0.29244  -0.22798  -0.20741
 Alpha virt. eigenvalues --   -0.00803   0.06534   0.09816   0.11007   0.12055
 Alpha virt. eigenvalues --    0.12206   0.12697   0.13483   0.13728   0.14345
 Alpha virt. eigenvalues --    0.14801   0.15226   0.16542   0.16768   0.17369

 Mulliken charges:
               1
     1  O   -0.459981
     2  C    0.453840
     3  C   -0.169264
     4  C   -0.298668
     5  C   -0.277338
     6  C   -0.098945
     7  C   -0.280512
     8  C   -0.166745
     9  C   -0.300754
    10  C    0.233277
    11  N   -0.402841
    12  C   -0.308432
    13  C   -0.303173
    14  C   -0.296886
    15  H    0.142289
    16  H    0.147337
    17  H    0.144563
    18  H    0.143049
    19  H    0.138940
    20  H    0.126258
    21  H    0.136946
    22  H    0.144290
    23  H    0.141694
    24  H    0.146225
    25  H    0.137961
    26  H    0.149462
    27  H    0.123892
    28  H    0.153882
    29  H    0.147489
    30  H    0.119603
    31  H    0.155734
    32  H    0.135234
    33  H    0.141575
 Sum of Mulliken charges =  -0.00000

 Dipole moment (field-independent basis, Debye):
    X=             -2.0703    Y=              2.2137    Z=              0.0022  Tot=              3.0309
 Quadrupole moment (field-independent basis, Debye-Ang):
   XX=            -91.8618   YY=            -88.1539   ZZ=            -84.8164
   XY=              8.2671   XZ=             -3.2072   YZ=              1.8099

  Exact polarizability: 138.490  -1.565 120.395  -1.132   0.319 113.078
 Approx polarizability: 185.645 -10.760 182.619   0.885  -1.091 172.147

                      1                      2                      3
                      A                      A                      A
 Frequencies --     39.0354                88.5146               171.3252
 Red. masses --      2.3613                 8.3448                 2.2949
 Frc consts  --      0.0021                 0.0385                 0.0397
 IR Inten    --      0.4488                 3.4212                 0.2049

                      4                      5                      6
                      A                      A                      A
 Frequencies --    203.1471               226.2777               255.8275
 Red. masses --      1.7676                 1.2924                 1.4133
 Frc consts  --      0.0430                 0.0390                 0.0545
 IR Inten    --      0.5041                 0.5092                 0.6008

                      7                      8                      9
                      A                      A                      A
 Frequencies --    269.4174               299.6261               344.5716
 Red. masses --      2.3351                 2.2184                 2.6568
 Frc consts  --      0.0999                 0.1173                 0.1859
 IR Inten    --      0.4446                 1.1632                 0.2598

                     10                     11                     12
                      A                      A                      A
 Frequencies --    353.8049               387.5091               390.9051
 Red. masses --      4.6819                 3.8969                 2.6049
 Frc consts  --      0.3453                 0.3448                 0.2345
 IR Inten    --      0.5780                 2.1416                 0.8509

                     13                     14                     15
                      A                      A                      A
 Frequencies --    416.2914               443.1654               451.1829
 Red. masses --      2.5403                 2.1832                 2.5603
 Frc consts  --      0.2594                 0.2526                 0.3071
 IR Inten    --      3.4965                 0.2532                11.3999

                     16                     17                     18
                      A                      A                      A
 Frequencies --    466.2816               484.4147               548.8860
 Red. masses --      2.4536                 3.0883                 2.8648
 Frc consts  --      0.3143                 0.4270                 0.5085
 IR Inten    --      0.7033                 2.3097                 1.5544

                     19                     20                     21
                      A                      A                      A
 Frequencies --    615.7579               633.3578               692.3035
 Red. masses --      5.4581                 3.5495                 3.8990
 Frc consts  --      1.2193                 0.8389                 1.1010
 IR Inten    --      0.1693                 1.3672                 0.5133

                     22                     23                     24
                      A                      A                      A
 Frequencies --    716.4084               789.2214               808.3281
 Red. masses --      3.9391                 3.8373                 2.9411
 Frc consts  --      1.1912                 1.4082                 1.1322
 IR Inten    --      1.2352                 0.2026                 0.9827

                     25                     26                     27
                      A                      A                      A
 Frequencies --    858.8594               864.3874               900.5828
 Red. masses --      3.4357                 2.6902                 1.5988
 Frc consts  --      1.4932                 1.1843                 0.7640
 IR Inten    --      6.8870                 3.8668                 0.4794

                     28                     29                     30
                      A                      A                      A
 Frequencies --    902.7191               920.4411               955.6344
 Red. masses --      1.5943                 2.3248                 2.1580
 Frc consts  --      0.7655                 1.1605                 1.1612
 IR Inten    --      4.3602                 5.7069                 1.8676

                     31                     32                     33
                      A                      A                      A
 Frequencies --    969.1066               982.3205               997.3331
 Red. masses --      2.3188                 2.2272                 2.8808
 Frc consts  --      1.2831                 1.2662                 1.6883
 IR Inten    --     16.6136                 1.3450                19.1695

                     34                     35                     36
                      A                      A                      A
 Frequencies --   1015.6030              1048.4915              1069.2946
 Red. masses --      2.0712                 2.1398                 1.8673
 Frc consts  --      1.2587                 1.3860                 1.2579
 IR Inten    --      0.5686                 0.5810                 7.5494

                     37                     38                     39
                      A                      A                      A
 Frequencies --   1074.4552              1075.0820              1099.1237
 Red. masses --      1.6868                 1.8053                 2.0591
 Frc consts  --      1.1474                 1.2294                 1.4656
 IR Inten    --      9.2390                30.7727                21.0427

                     40                     41                     42
                      A                      A                      A
 Frequencies --   1102.0457              1124.6038              1132.7564
 Red. masses --      2.3301                 1.3988                 1.4321
 Frc consts  --      1.6673                 1.0423                 1.0827
 IR Inten    --     13.9667                 4.7120                 7.0015

                     43                     44                     45
                      A                      A                      A
 Frequencies --   1139.6740              1163.9155              1189.6538
 Red. masses --      1.2931                 1.1404                 1.4034
 Frc consts  --      0.9896                 0.9102                 1.1702
 IR Inten    --      1.3451                 0.4855                 6.7603

                     46                     47                     48
                      A                      A                      A
 Frequencies --   1199.7097              1232.7825              1245.5772
 Red. masses --      1.3395                 1.6313                 1.8217
 Frc consts  --      1.1359                 1.4607                 1.6652
 IR Inten    --      4.9197                 8.2510                 2.7895

                     49                     50                     51
                      A                      A                      A
 Frequencies --   1269.3943              1293.0762              1296.0799
 Red. masses --      1.5375                 1.6802                 1.6614
 Frc consts  --      1.4596                 1.6552                 1.6443
 IR Inten    --      9.0331                 2.0601                 1.3113

                     52                     53                     54
                      A                      A                      A
 Frequencies --   1303.0897              1315.0838              1330.1181
 Red. masses --      2.0475                 2.0497                 1.5982
 Frc consts  --      2.0484                 2.0886                 1.6660
 IR Inten    --      6.3502                 7.2121                 6.8532

                     55                     56                     57
                      A                      A                      A
 Frequencies --   1339.9860              1354.2232              1361.2460
 Red. masses --      1.7711                 1.5004                 1.4456
 Frc consts  --      1.8737                 1.6212                 1.5782
 IR Inten    --     10.9864                 1.0195                 0.2100

                     58                     59                     60
                      A                      A                      A
 Frequencies --   1380.7970              1390.9884              1395.3479
 Red. masses --      1.6021                 1.5253                 1.5132
 Frc consts  --      1.7997                 1.7388                 1.7358
 IR Inten    --      3.6072                 2.1347                 0.4921

                     61                     62                     63
                      A                      A                      A
 Frequencies --   1396.7296              1416.9820              1472.0094
 Red. masses --      1.5407                 1.4514                 1.1549
 Frc consts  --      1.7709                 1.7170                 1.4744
 IR Inten    --      2.0137                 3.6109                 0.7594

                     64                     65                     66
                      A                      A                      A
 Frequencies --   1505.8672              1509.3872              1516.0825
 Red. masses --      1.1726                 1.0846                 1.0902
 Frc consts  --      1.5666                 1.4559                 1.4764
 IR Inten    --      0.7069                 0.2664                 8.3783

                     67                     68                     69
                      A                      A                      A
 Frequencies --   1518.4436              1522.3241              1526.0943
 Red. masses --      1.0520                 1.0904                 1.0868
 Frc consts  --      1.4291                 1.4889                 1.4913
 IR Inten    --      5.2996                10.0939                 7.1555

                     70                     71                     72
                      A                      A                      A
 Frequencies --   1530.9650              1538.4952              1544.4273
 Red. masses --      1.0541                 1.0497                 1.0761
 Frc consts  --      1.4556                 1.4639                 1.5123
 IR Inten    --      2.0781                15.2034                 3.3268

                     73                     74                     75
                      A                      A                      A
 Frequencies --   1548.8144              1821.0013              2943.8424
 Red. masses --      1.0621                11.2502                 1.0622
 Frc consts  --      1.5011                21.9801                 5.4236
 IR Inten    --      4.1925               222.8872                45.2873

                     76                     77                     78
                      A                      A                      A
 Frequencies --   2957.4889              3032.7105              3034.2104
 Red. masses --      1.0631                 1.0647                 1.0608
 Frc consts  --      5.4786                 5.7696                 5.7540
 IR Inten    --     92.9035                11.2873                27.4732

                     79                     80                     81
                      A                      A                      A
 Frequencies --   3039.2682              3041.6455              3051.6918
 Red. masses --      1.0610                 1.0636                 1.0653
 Frc consts  --      5.7745                 5.7977                 5.8450
 IR Inten    --     14.8473                39.5322                44.8171

                     82                     83                     84
                      A                      A                      A
 Frequencies --   3056.6072              3071.7171              3076.0223
 Red. masses --      1.0736                 1.1052                 1.1041
 Frc consts  --      5.9097                 6.1441                 6.1554
 IR Inten    --     60.1191                 8.2180                55.5174

                     85                     86                     87
                      A                      A                      A
 Frequencies --   3080.1982              3083.3555              3086.6190
 Red. masses --      1.0883                 1.0915                 1.0859
 Frc consts  --      6.0833                 6.1139                 6.0957
 IR Inten    --     29.3447                 8.9708                76.0936

                     88                     89                     90
                      A                      A                      A
 Frequencies --   3087.4308              3089.6707              3090.9265
 Red. masses --      1.0850                 1.0874                 1.0936
 Frc consts  --      6.0935                 6.1161                 6.1558
 IR Inten    --     34.9190                30.0397                39.3040

                     91                     92                     93
                      A                      A                      A
 Frequencies --   3096.9938              3144.5824              3150.2772
 Red. masses --      1.1014                 1.0967                 1.0948
 Frc consts  --      6.2238                 6.3896                 6.4015
 IR Inten    --     32.2330                31.3279                26.4564

 - Thermochemistry -
 -------------------
 Temperature   298.150 Kelvin.  Pressure   1.00000 Atm.
 Atom     1 has atomic number  8 and mass  15.99491

 Molecular mass:   193.14666 amu.
 Principal axes and moments of inertia in atomic units:
                           1         2         3
     Eigenvalues --  1500.464952996.548563343.34235
           X            0.99927   0.03599  -0.01243
           Y           -0.03562   0.99895   0.02896
           Z            0.01346  -0.02849   0.99950
 This molecule is an asymmetric top.
 Rotational symmetry number  1.
 Warning -- assumption of classical behavior for rotation
           may cause significant error
 Rotational temperatures (Kelvin)      0.05772     0.02890     0.02591
 Rotational constants (GHZ):           1.20279     0.60227     0.53980
 Zero-point vibrational energy     783386.7 (Joules/Mol)
                                  187.23391 (Kcal/Mol)
 Warning -- explicit consideration of  19 degrees of freedom as
           vibrations may cause significant error
 Vibrational temperatures:     56.16   127.35   246.50   292.28   325.56
          (Kelvin)            368.08   387.63   431.10   495.76   509.05
                              557.54   562.43   598.95   637.62   649.15
                              670.88   696.96   789.72   885.94   911.26
                              996.07  1030.75  1135.51  1163.00  1235.71
                             1243.66  1295.74  1298.81  1324.31  1374.94
                             1394.33  1413.34  1434.94  1461.23  1508.55
                             1538.48  1545.90  1546.80  1581.39  1585.60
                             1618.05  1629.78  1639.74  1674.61  1711.65
                             1726.11  1773.70  1792.11  1826.38  1860.45
                             1864.77  1874.86  1892.11  1913.74  1927.94
                             1948.43  1958.53  1986.66  2001.32  2007.59
                             2009.58  2038.72  2117.89  2166.61  2171.67
                             2181.30  2184.70  2190.28  2195.71  2202.72
                             2213.55  2222.09  2228.40  2620.01  4235.53
                             4255.17  4363.39  4365.55  4372.83  4376.25
                             4390.70  4397.78  4419.52  4425.71  4431.72
                             4436.26  4440.96  4442.12  4445.35  4447.15
                             4455.88  4524.35  4532.55

 Zero-point correction=                           0.298376 (Hartree/Particle)
 Thermal correction to Energy=                    0.310380
 Thermal correction to Enthalpy=                  0.311324
 Thermal correction to Gibbs Free Energy=         0.260935
 Sum of electronic and zero-point Energies=           -598.391277
 Sum of electronic and thermal Energies=              -598.379274
 Sum of electronic and thermal Enthalpies=            -598.378329
 Sum of electronic and thermal Free Energies=         -598.428718

                     E (Thermal)             CV                S
                      KCal/Mol        Cal/Mol-Kelvin    Cal/Mol-Kelvin
 Total                  194.766             50.252            106.052
 Electronic               0.000              0.000              0.000
 Translational            0.889              2.981             41.680
 Rotational               0.889              2.981             31.086
 Vibrational            192.989             44.291             33.286
 Vibration     1          0.594              1.981              5.307
 Vibration     2          0.601              1.957              3.693
 Vibration     3          0.626              1.878              2.421
 Vibration     4          0.639              1.835              2.104
 Vibration     5          0.650              1.801              1.908
 Vibration     6          0.666              1.753              1.690
 Vibration     7          0.674              1.729              1.600
 Vibration     8          0.692              1.674              1.419
 Vibration     9          0.723              1.586              1.191
 Vibration    10          0.730              1.567              1.149
 Vibration    11          0.756              1.497              1.010
 Vibration    12          0.759              1.490              0.997
 Vibration    13          0.780              1.435              0.905
 Vibration    14          0.803              1.376              0.817
 Vibration    15          0.810              1.358              0.792
 Vibration    16          0.824              1.325              0.748
 Vibration    17          0.841              1.285              0.698
 Vibration    18          0.904              1.142              0.546
 Vibration    19          0.975              0.999              0.423

 Normal termination of Gaussian 16 at Sat Feb 24 02:19:09 2024.
