 Gaussian 16, Revision A.03,
 Gaussian 16:  EM64M-G16RevA.03 25-Dec-2016

 ---------------------
 # freq b3lyp/6-31g(d)
 ---------------------

 ---------
 good luck
 ---------
 Symbolic Z-matrix:
 Charge =  0 Multiplicity = 1

                         Standard orientation:
 ---------------------------------------------------------------------
 Center     Atomic      Atomic             Coordinates (Angstroms)
 Number     Number       Type             X           Y           Z
 ---------------------------------------------------------------------
      1          8           0       -2.671232   -1.878002   -0.000470
      2          6           0       -1.827018   -1.003206   -0.000246
      3          6           0       -1.241180   -0.388144    1.268082
      4          6           0        0.291792   -0.607041    1.259709
      5          6           0       -1.551027    1.129869    1.259824
      6          6           0       -0.937096    1.775951    0.001708
      7          6           0       -1.552783    1.132205   -1.256743
      8          6           0       -1.242946   -0.385789   -1.268246
      9          6           0        0.290034   -0.604716   -1.262422
     10          6           0        0.914543    0.054991   -0.001185
     11          6           0        2.423608   -0.148248   -0.002457
     12          8           0        3.259002    0.729677    0.000236
     13          8           0        2.765465   -1.463606    0.000576
     14          6           0        0.589273    1.564450    0.000439
     15          1           0       -1.693872   -0.880834    2.134420
     16          1           0        0.525309   -1.677047    1.275417
     17          1           0        0.726421   -0.166354    2.166996
     18          1           0       -1.138238    1.590078    2.167617
     19          1           0       -2.636447    1.291583    1.282739
     20          1           0       -1.151716    2.852042    0.002857
     21          1           0       -1.141259    1.594096   -2.164256
     22          1           0       -2.638234    1.293960   -1.277843
     23          1           0       -1.696843   -0.876874   -2.134864
     24          1           0        0.523516   -1.674690   -1.280426
     25          1           0        0.723406   -0.162362   -2.169500
     26          1           0        3.741025   -1.486643    0.002222
     27          1           0        1.044540    2.037473    0.878514
     28          1           0        1.043307    2.039089   -0.877401
 ---------------------------------------------------------------------

 SCF Done:  E(RB3LYP) =  -653.302321263     A.U. after   14 cycles

 The electronic state is 1-A.
 Alpha  occ. eigenvalues --  -19.20241 -19.14562 -19.13652 -10.32359 -10.26778
 Alpha  occ. eigenvalues --  -10.21988 -10.20175 -10.20173 -10.19962 -10.19960
 Alpha  occ. eigenvalues --  -10.19913 -10.19526 -10.19525 -10.18848  -1.11062
 Alpha  occ. eigenvalues --   -1.03486  -1.01955  -0.88342  -0.79610  -0.78660
 Alpha  occ. eigenvalues --   -0.76803  -0.68464  -0.66939  -0.64126  -0.60993
 Alpha  occ. eigenvalues --   -0.59184  -0.57068  -0.52079  -0.49370  -0.47930
 Alpha  occ. eigenvalues --   -0.46618  -0.46223  -0.46178  -0.44876  -0.43752
 Alpha  occ. eigenvalues --   -0.43391  -0.41428  -0.41374  -0.40896  -0.40703
 Alpha  occ. eigenvalues --   -0.39197  -0.36895  -0.36815  -0.34859  -0.34461
 Alpha  occ. eigenvalues --   -0.34250  -0.32299  -0.31808  -0.30993  -0.30236
 Alpha  occ. eigenvalues --   -0.27511  -0.23415
 Alpha virt. eigenvalues --   -0.01370   0.00161   0.05904   0.07685   0.11418
 Alpha virt. eigenvalues --    0.11441   0.12713   0.13254   0.13260   0.14049
 Alpha virt. eigenvalues --    0.15469   0.15968   0.17069   0.18521   0.18625

 Mulliken charges:
               1
     1  O   -0.456081
     2  C    0.455345
     3  C   -0.169567
     4  C   -0.295666
     5  C   -0.281558
     6  C   -0.102996
     7  C   -0.281557
     8  C   -0.169519
     9  C   -0.295805
    10  C   -0.013502
    11  C    0.584875
    12  O   -0.468166
    13  O   -0.577163
    14  C   -0.265790
    15  H    0.147392
    16  H    0.168334
    17  H    0.147312
    18  H    0.140961
    19  H    0.146808
    20  H    0.131068
    21  H    0.140951
    22  H    0.146812
    23  H    0.147372
    24  H    0.168231
    25  H    0.147289
    26  H    0.410846
    27  H    0.146917
    28  H    0.146856
 Sum of Mulliken charges =  -0.00000

 Dipole moment (field-independent basis, Debye):
    X=              1.1129    Y=              1.1028    Z=             -0.0000  Tot=              1.5667
 Quadrupole moment (field-independent basis, Debye-Ang):
   XX=            -89.7662   YY=            -86.5425   ZZ=            -78.0270
   XY=            -14.6935   XZ=             -0.0005   YZ=             -0.0061

  Exact polarizability: 121.452   3.389 109.215   0.016  -0.006  98.892
 Approx polarizability: 170.757  17.416 173.606   0.031   0.007 147.375

                      1                      2                      3
                      A                      A                      A
 Frequencies --     36.9751                89.0807               160.8547
 Red. masses --     11.2788                10.4121                 3.7113
 Frc consts  --      0.0091                 0.0487                 0.0566
 IR Inten    --      1.4896                 4.2291                 0.0999

                      4                      5                      6
                      A                      A                      A
 Frequencies --    190.7121               274.8274               297.6550
 Red. masses --      4.6405                 2.3461                 2.3247
 Frc consts  --      0.0994                 0.1044                 0.1214
 IR Inten    --      0.4186                 0.9998                 0.0147

                      7                      8                      9
                      A                      A                      A
 Frequencies --    316.3871               348.4700               383.1490
 Red. masses --      4.5260                 5.5246                 2.9281
 Frc consts  --      0.2669                 0.3953                 0.2533
 IR Inten    --      4.2029                 0.2734                 2.6871

                     10                     11                     12
                      A                      A                      A
 Frequencies --    394.2119               432.8335               440.2726
 Red. masses --      4.9269                 1.7908                 1.9187
 Frc consts  --      0.4511                 0.1977                 0.2191
 IR Inten    --      0.1634                 0.0188                 3.2528

                     13                     14                     15
                      A                      A                      A
 Frequencies --    465.3915               494.9372               615.5409
 Red. masses --      4.3547                 4.2860                 4.9570
 Frc consts  --      0.5557                 0.6186                 1.1066
 IR Inten    --     14.1493                 5.2691                 3.8265

                     16                     17                     18
                      A                      A                      A
 Frequencies --    616.0780               635.8042               637.2209
 Red. masses --      1.2978                 3.1867                 4.9341
 Frc consts  --      0.2902                 0.7590                 1.1804
 IR Inten    --     62.3912                13.7399                36.4780

                     19                     20                     21
                      A                      A                      A
 Frequencies --    710.9435               716.5392               765.2175
 Red. masses --      3.4913                 4.2340                 4.4948
 Frc consts  --      1.0397                 1.2808                 1.5507
 IR Inten    --     16.1518                 2.3492                34.8563

                     22                     23                     24
                      A                      A                      A
 Frequencies --    788.4579               805.1340               861.5095
 Red. masses --      3.8245                 2.8643                 2.6963
 Frc consts  --      1.4008                 1.0940                 1.1791
 IR Inten    --      1.3676                 0.4094                 0.0004

                     25                     26                     27
                      A                      A                      A
 Frequencies --    894.3126               896.3406               905.6191
 Red. masses --      3.3537                 1.6091                 1.5681
 Frc consts  --      1.5804                 0.7617                 0.7577
 IR Inten    --      0.9014                 2.0854                 0.4866

                     28                     29                     30
                      A                      A                      A
 Frequencies --    914.8051               959.2086               985.2737
 Red. masses --      2.3692                 2.3038                 2.2596
 Frc consts  --      1.1682                 1.2489                 1.2924
 IR Inten    --     10.0877                 0.0148                 3.4331

                     31                     32                     33
                      A                      A                      A
 Frequencies --    986.4372              1018.6353              1052.4359
 Red. masses --      2.2052                 2.0859                 2.2844
 Frc consts  --      1.2643                 1.2752                 1.4908
 IR Inten    --      2.3943                 4.4415                 1.2794

                     34                     35                     36
                      A                      A                      A
 Frequencies --   1065.2743              1078.8141              1086.1316
 Red. masses --      2.0026                 1.8750                 3.5234
 Frc consts  --      1.3390                 1.2857                 2.4489
 IR Inten    --      4.1080                26.1595                44.6317

                     37                     38                     39
                      A                      A                      A
 Frequencies --   1102.8186              1120.6313              1134.8343
 Red. masses --      2.1899                 1.5210                 1.2553
 Frc consts  --      1.5692                 1.1254                 0.9525
 IR Inten    --      5.8004                25.0881                 0.1608

                     40                     41                     42
                      A                      A                      A
 Frequencies --   1162.0671              1185.5851              1221.1719
 Red. masses --      1.1053                 1.6903                 1.2316
 Frc consts  --      0.8794                 1.3999                 1.0821
 IR Inten    --      0.0721               145.0820                47.8959

                     43                     44                     45
                      A                      A                      A
 Frequencies --   1239.8702              1268.1432              1284.9731
 Red. masses --      1.9529                 1.5181                 1.8479
 Frc consts  --      1.7688                 1.4384                 1.7977
 IR Inten    --      8.9398                 5.8003                 8.8515

                     46                     47                     48
                      A                      A                      A
 Frequencies --   1296.2527              1305.9222              1326.8487
 Red. masses --      1.3852                 1.6717                 1.5749
 Frc consts  --      1.3713                 1.6798                 1.6336
 IR Inten    --      0.0016                 0.7465                 5.0532

                     49                     50                     51
                      A                      A                      A
 Frequencies --   1338.9846              1350.5205              1358.8215
 Red. masses --      1.6033                 1.5795                 1.4211
 Frc consts  --      1.6936                 1.6973                 1.5460
 IR Inten    --      2.8626                 8.4739                 1.6418

                     52                     53                     54
                      A                      A                      A
 Frequencies --   1378.0564              1379.0456              1389.5255
 Red. masses --      2.4764                 1.6628                 1.4779
 Frc consts  --      2.7708                 1.8632                 1.6812
 IR Inten    --     37.1384                 2.5297                 0.0051

                     55                     56                     57
                      A                      A                      A
 Frequencies --   1393.0986              1398.6283              1411.7773
 Red. masses --      1.5046                 1.5332                 1.4929
 Frc consts  --      1.7204                 1.7671                 1.7531
 IR Inten    --      2.8142                 3.1841                 2.2706

                     58                     59                     60
                      A                      A                      A
 Frequencies --   1510.5598              1511.9616              1524.4651
 Red. masses --      1.0841                 1.0878                 1.0907
 Frc consts  --      1.4574                 1.4652                 1.4934
 IR Inten    --      0.1299                 5.9100                11.6116

                     61                     62                     63
                      A                      A                      A
 Frequencies --   1526.0814              1543.5086              1822.8833
 Red. masses --      1.0926                 1.0900                11.2402
 Frc consts  --      1.4993                 1.5299                22.0060
 IR Inten    --      8.6328                 1.5868               251.6338

                     64                     65                     66
                      A                      A                      A
 Frequencies --   1833.9934              3036.1007              3036.1320
 Red. masses --     10.1253                 1.0641                 1.0598
 Frc consts  --     20.0657                 5.7792                 5.7558
 IR Inten    --    230.0458                11.5045                28.6801

                     67                     68                     69
                      A                      A                      A
 Frequencies --   3042.7199              3044.2682              3051.9303
 Red. masses --      1.0643                 1.0654                 1.0729
 Frc consts  --      5.8054                 5.8173                 5.8877
 IR Inten    --     43.6963                 6.5707                31.1493

                     70                     71                     72
                      A                      A                      A
 Frequencies --   3064.2255              3074.6826              3078.6671
 Red. masses --      1.0708                 1.1054                 1.1040
 Frc consts  --      5.9237                 6.1569                 6.1653
 IR Inten    --     64.3856                 9.0855                52.2497

                     73                     74                     75
                      A                      A                      A
 Frequencies --   3090.6971              3092.4923              3095.8401
 Red. masses --      1.0873                 1.0877                 1.1033
 Frc consts  --      6.1193                 6.1288                 6.2302
 IR Inten    --     38.7037                12.8761                26.1916

                     76                     77                     78
                      A                      A                      A
 Frequencies --   3099.3895              3102.9366              3684.1008
 Red. masses --      1.1006                 1.0983                 1.0641
 Frc consts  --      6.2291                 6.2302                 8.5093
 IR Inten    --      4.8117                32.0174                57.5766

 - Thermochemistry -
 -------------------
 Temperature   298.150 Kelvin.  Pressure   1.00000 Atm.
 Atom     1 has atomic number  8 and mass  15.99491

 Molecular mass:   194.09429 amu.
 Principal axes and moments of inertia in atomic units:
                           1         2         3
     Eigenvalues --  1452.850692969.659343343.83578
           X            0.99945  -0.03307   0.00002
           Y            0.03307   0.99945  -0.00005
           Z           -0.00002   0.00005   1.00000
 This molecule is an asymmetric top.
 Rotational symmetry number  1.
 Warning -- assumption of classical behavior for rotation
           may cause significant error
 Rotational temperatures (Kelvin)      0.05962     0.02917     0.02590
 Rotational constants (GHZ):           1.24221     0.60773     0.53972
 Zero-point vibrational energy     629455.3 (Joules/Mol)
                                  150.44342 (Kcal/Mol)
 Warning -- explicit consideration of  16 degrees of freedom as
           vibrations may cause significant error
 Vibrational temperatures:     53.20   128.17   231.43   274.39   395.42
          (Kelvin)            428.26   455.21   501.37   551.27   567.18
                              622.75   633.45   669.59   712.10   885.63
                              886.40   914.78   916.82  1022.89  1030.94
                             1100.98  1134.42  1158.41  1239.52  1286.72
                             1289.63  1302.98  1316.20  1380.09  1417.59
                             1419.26  1465.59  1514.22  1532.69  1552.17
                             1562.70  1586.71  1612.34  1632.77  1671.96
                             1705.79  1756.99  1783.90  1824.58  1848.79
                             1865.02  1878.93  1909.04  1926.50  1943.10
                             1955.04  1982.72  1984.14  1999.22  2004.36
                             2012.31  2031.23  2173.36  2175.38  2193.37
                             2195.69  2220.76  2622.72  2638.71  4368.27
                             4368.32  4377.80  4380.02  4391.05  4408.74
                             4423.78  4429.52  4446.82  4449.41  4454.22
                             4459.33  4464.43  5300.60

 Zero-point correction=                           0.239747 (Hartree/Particle)
 Thermal correction to Energy=                    0.250590
 Thermal correction to Enthalpy=                  0.251534
 Thermal correction to Gibbs Free Energy=         0.202988
 Sum of electronic and zero-point Energies=           -653.062574
 Sum of electronic and thermal Energies=              -653.051732
 Sum of electronic and thermal Enthalpies=            -653.050787
 Sum of electronic and thermal Free Energies=         -653.099334

                     E (Thermal)             CV                S
                      KCal/Mol        Cal/Mol-Kelvin    Cal/Mol-Kelvin
 Total                  157.247             45.271            102.174
 Electronic               0.000              0.000              0.000
 Translational            0.889              2.981             41.695
 Rotational               0.889              2.981             31.046
 Vibrational            155.470             39.310             29.434
 Vibration     1          0.594              1.982              5.415
 Vibration     2          0.602              1.957              3.680
 Vibration     3          0.622              1.890              2.540
 Vibration     4          0.634              1.853              2.221
 Vibration     5          0.677              1.720              1.566
 Vibration     6          0.691              1.678              1.430
 Vibration     7          0.703              1.642              1.329
 Vibration     8          0.726              1.578              1.173
 Vibration     9          0.752              1.506              1.027
 Vibration    10          0.761              1.483              0.984
 Vibration    11          0.794              1.399              0.849
 Vibration    12          0.800              1.382              0.826
 Vibration    13          0.823              1.327              0.751
 Vibration    14          0.851              1.261              0.671
 Vibration    15          0.975              0.999              0.424
 Vibration    16          0.976              0.998              0.423

 Normal termination of Gaussian 16 at Sat Feb 24 02:14:22 2024.
