 Gaussian 16, Revision A.03,
 Gaussian 16:  EM64M-G16RevA.03 25-Dec-2016

 ---------------------
 # freq b3lyp/6-31g(d)
 ---------------------

 ---------
 good luck
 ---------
 Symbolic Z-matrix:
 Charge =  0 Multiplicity = 1

                         Standard orientation:
 ---------------------------------------------------------------------
 Center     Atomic      Atomic             Coordinates (Angstroms)
 Number     Number       Type             X           Y           Z
 ---------------------------------------------------------------------
      1          8           0       -2.466486   -1.107495   -0.592955
      2          6           0       -1.479684   -0.497228   -0.262072
      3          6           0       -0.153582   -0.255757   -0.999453
      4          6           0        0.826028   -0.849450    0.065088
      5          6           0        2.213723   -0.422281   -0.077534
      6          6           0        3.363335   -0.066766   -0.188365
      7          6           0        0.155676   -0.429448    1.442226
      8          6           0       -1.152134    0.280691    1.020481
      9          6           0       -0.788454    1.655096    0.407611
     10          6           0       -0.096767    1.287953   -0.957302
     11          1           0       -0.068950   -0.707709   -1.987791
     12          1           0        0.793155   -1.942966   -0.022819
     13          1           0        4.379743    0.240772   -0.285359
     14          1           0       -0.044207   -1.316329    2.051223
     15          1           0        0.809066    0.233672    2.016193
     16          1           0       -1.938832    0.293949    1.775827
     17          1           0       -1.688227    2.256947    0.243007
     18          1           0       -0.125904    2.224180    1.067893
     19          1           0        0.933756    1.648858   -1.014961
     20          1           0       -0.646552    1.711728   -1.803658
 ---------------------------------------------------------------------

 SCF Done:  E(RB3LYP) =  -424.111588529     A.U. after   15 cycles

 The electronic state is 1-A.
 Alpha  occ. eigenvalues --  -19.14767 -10.27419 -10.22719 -10.20319 -10.20279
 Alpha  occ. eigenvalues --  -10.19993 -10.19680 -10.19458 -10.19091 -10.18411
 Alpha  occ. eigenvalues --   -1.04575  -0.88454  -0.78262  -0.74833  -0.72787
 Alpha  occ. eigenvalues --   -0.67333  -0.63025  -0.56833  -0.53780  -0.52620
 Alpha  occ. eigenvalues --   -0.50924  -0.48391  -0.46355  -0.42826  -0.41404
 Alpha  occ. eigenvalues --   -0.40079  -0.39494  -0.38030  -0.37597  -0.36002
 Alpha  occ. eigenvalues --   -0.35648  -0.34236  -0.31867  -0.26899  -0.26755
 Alpha  occ. eigenvalues --   -0.23580
 Alpha virt. eigenvalues --   -0.01642   0.04320   0.05045   0.08462   0.10127
 Alpha virt. eigenvalues --    0.12284   0.13363   0.14664   0.15036   0.15494
 Alpha virt. eigenvalues --    0.15955   0.17102   0.18244   0.20096   0.20569

 Mulliken charges:
               1
     1  O   -0.436103
     2  C    0.434343
     3  C   -0.167333
     4  C   -0.264557
     5  C    0.404961
     6  C   -0.551432
     7  C   -0.286079
     8  C   -0.166856
     9  C   -0.284816
    10  C   -0.290577
    11  H    0.151213
    12  H    0.176153
    13  H    0.193278
    14  H    0.158572
    15  H    0.161319
    16  H    0.145945
    17  H    0.153606
    18  H    0.149190
    19  H    0.164980
    20  H    0.154195
 Sum of Mulliken charges =  -0.00000

 Dipole moment (field-independent basis, Debye):
    X=              1.8403    Y=              1.4250    Z=              0.8701  Tot=              2.4849
 Quadrupole moment (field-independent basis, Debye-Ang):
   XX=            -62.9113   YY=            -58.4289   ZZ=            -57.5791
   XY=             -3.1279   XZ=             -2.6194   YZ=             -1.4646

  Exact polarizability: 108.917   6.459  73.122  -1.903   0.035  71.619
 Approx polarizability: 164.928  21.468 108.724  -0.135   1.775 102.807

                      1                      2                      3
                      A                      A                      A
 Frequencies --     72.6125               130.3993               155.7930
 Red. masses --      3.4174                 5.2257                 4.0338
 Frc consts  --      0.0106                 0.0524                 0.0577
 IR Inten    --      0.9763                 2.2023                 0.5040

                      4                      5                      6
                      A                      A                      A
 Frequencies --    211.8077               298.8111               363.8068
 Red. masses --      2.4132                 2.6031                 2.8974
 Frc consts  --      0.0638                 0.1369                 0.2259
 IR Inten    --      0.2961                 1.9715                 1.5684

                      7                      8                      9
                      A                      A                      A
 Frequencies --    433.5713               470.8694               538.5182
 Red. masses --      4.8427                 5.1746                 4.7871
 Frc consts  --      0.5364                 0.6760                 0.8179
 IR Inten    --      3.5869                 4.8779                 1.2925

                     10                     11                     12
                      A                      A                      A
 Frequencies --    559.3977               608.8782               613.6850
 Red. masses --      4.9229                 1.2140                 1.2819
 Frc consts  --      0.9076                 0.2652                 0.2844
 IR Inten    --      0.8605                48.1106                42.6963

                     13                     14                     15
                      A                      A                      A
 Frequencies --    642.2600               719.7164               753.5628
 Red. masses --      3.8834                 2.9047                 3.9406
 Frc consts  --      0.9438                 0.8865                 1.3184
 IR Inten    --      3.2009                 4.0002                 1.5791

                     16                     17                     18
                      A                      A                      A
 Frequencies --    785.5920               832.9425               866.5672
 Red. masses --      2.4572                 2.3788                 2.7321
 Frc consts  --      0.8935                 0.9724                 1.2088
 IR Inten    --      2.4100                 5.4418                 5.0477

                     19                     20                     21
                      A                      A                      A
 Frequencies --    878.1280               883.7986               956.2113
 Red. masses --      1.9414                 3.7738                 1.8726
 Frc consts  --      0.8820                 1.7367                 1.0088
 IR Inten    --      1.8724                 3.8977                 0.6178

                     22                     23                     24
                      A                      A                      A
 Frequencies --    989.9046              1006.0930              1032.5085
 Red. masses --      2.0657                 2.4335                 2.7146
 Frc consts  --      1.1926                 1.4513                 1.7051
 IR Inten    --      0.9127                 0.1953                 1.9658

                     25                     26                     27
                      A                      A                      A
 Frequencies --   1053.7555              1082.6240              1137.7882
 Red. masses --      2.7887                 2.1664                 1.0740
 Frc consts  --      1.8245                 1.4960                 0.8192
 IR Inten    --      3.3001                11.0351                 0.9093

                     28                     29                     30
                      A                      A                      A
 Frequencies --   1143.7595              1167.6083              1194.1925
 Red. masses --      2.4282                 1.3903                 1.3966
 Frc consts  --      1.8716                 1.1167                 1.1734
 IR Inten    --     28.4694                 8.4799                 0.3262

                     31                     32                     33
                      A                      A                      A
 Frequencies --   1231.2615              1266.8321              1272.9554
 Red. masses --      1.2863                 1.5229                 1.4556
 Frc consts  --      1.1489                 1.4400                 1.3897
 IR Inten    --      0.2977                 0.3405                 0.4842

                     34                     35                     36
                      A                      A                      A
 Frequencies --   1290.5327              1311.9385              1331.3868
 Red. masses --      1.2925                 1.2962                 1.4185
 Frc consts  --      1.2683                 1.3144                 1.4814
 IR Inten    --      1.2367                 0.2349                 0.4108

                     37                     38                     39
                      A                      A                      A
 Frequencies --   1352.0368              1354.9522              1373.6566
 Red. masses --      1.4999                 1.3876                 1.4608
 Frc consts  --      1.6154                 1.5009                 1.6241
 IR Inten    --      4.4519                 4.2721                 7.5830

                     40                     41                     42
                      A                      A                      A
 Frequencies --   1515.8642              1525.5903              1541.1083
 Red. masses --      1.0792                 1.0849                 1.0932
 Frc consts  --      1.4610                 1.4877                 1.5298
 IR Inten    --      0.0504                 4.7306                 2.7647

                     43                     44                     45
                      A                      A                      A
 Frequencies --   1874.9564              2232.3755              3045.0271
 Red. masses --     12.1720                 6.0111                 1.0841
 Frc consts  --     25.2113                17.6498                 5.9224
 IR Inten    --    287.3637                 2.3384                10.6639

                     46                     47                     48
                      A                      A                      A
 Frequencies --   3067.5155              3079.4279              3081.0495
 Red. masses --      1.0594                 1.0598                 1.0618
 Frc consts  --      5.8735                 5.9213                 5.9385
 IR Inten    --     28.0412                33.9515                22.6192

                     49                     50                     51
                      A                      A                      A
 Frequencies --   3106.5747              3126.7320              3129.4661
 Red. masses --      1.1073                 1.1077                 1.1058
 Frc consts  --      6.2960                 6.3804                 6.3806
 IR Inten    --      9.2725                14.1384                23.7337

                     52                     53                     54
                      A                      A                      A
 Frequencies --   3146.7333              3155.0274              3493.8569
 Red. masses --      1.0892                 1.0895                 1.1591
 Frc consts  --      6.3544                 6.3900                 8.3362
 IR Inten    --     25.3492                15.1872                63.7922

 - Thermochemistry -
 -------------------
 Temperature   298.150 Kelvin.  Pressure   1.00000 Atm.
 Atom     1 has atomic number  8 and mass  15.99491

 Molecular mass:   134.07317 amu.
 Principal axes and moments of inertia in atomic units:
                           1         2         3
     Eigenvalues --   723.030701676.076581754.30976
           X            0.99980  -0.01714  -0.00997
           Y            0.01615   0.99556  -0.09273
           Z            0.01152   0.09255   0.99564
 This molecule is an asymmetric top.
 Rotational symmetry number  1.
 Warning -- assumption of classical behavior for rotation
           may cause significant error
 Rotational temperatures (Kelvin)      0.11979     0.05168     0.04937
 Rotational constants (GHZ):           2.49608     1.07677     1.02875
 Zero-point vibrational energy     439579.9 (Joules/Mol)
                                  105.06212 (Kcal/Mol)
 Warning -- explicit consideration of  12 degrees of freedom as
           vibrations may cause significant error
 Vibrational temperatures:    104.47   187.62   224.15   304.74   429.92
          (Kelvin)            523.44   623.81   677.48   774.81   804.85
                              876.04   882.96   924.07  1035.51  1084.21
                             1130.29  1198.42  1246.80  1263.43  1271.59
                             1375.77  1424.25  1447.54  1485.55  1516.12
                             1557.65  1637.02  1645.61  1679.93  1718.18
                             1771.51  1822.69  1831.50  1856.79  1887.59
                             1915.57  1945.28  1949.47  1976.39  2180.99
                             2194.98  2217.31  2697.64  3211.89  4381.11
                             4413.47  4430.61  4432.94  4469.67  4498.67
                             4502.60  4527.45  4539.38  5026.88

 Zero-point correction=                           0.167427 (Hartree/Particle)
 Thermal correction to Energy=                    0.175947
 Thermal correction to Enthalpy=                  0.176891
 Thermal correction to Gibbs Free Energy=         0.134024
 Sum of electronic and zero-point Energies=           -423.944161
 Sum of electronic and thermal Energies=              -423.935641
 Sum of electronic and thermal Enthalpies=            -423.934697
 Sum of electronic and thermal Free Energies=         -423.977565

                     E (Thermal)             CV                S
                      KCal/Mol        Cal/Mol-Kelvin    Cal/Mol-Kelvin
 Total                  110.408             33.754             90.222
 Electronic               0.000              0.000              0.000
 Translational            0.889              2.981             40.592
 Rotational               0.889              2.981             29.143
 Vibrational            108.631             27.792             20.487
 Vibration     1          0.599              1.967              4.081
 Vibration     2          0.612              1.923              2.940
 Vibration     3          0.620              1.896              2.600
 Vibration     4          0.643              1.823              2.028
 Vibration     5          0.692              1.676              1.424
 Vibration     6          0.737              1.547              1.106
 Vibration     7          0.794              1.397              0.847
 Vibration     8          0.828              1.315              0.735
 Vibration     9          0.894              1.165              0.568
 Vibration    10          0.915              1.119              0.525
 Vibration    11          0.968              1.013              0.435
 Vibration    12          0.973              1.003              0.427

 Normal termination of Gaussian 16 at Wed Feb 21 19:07:47 2024.
