 Gaussian 16, Revision A.03,
 Gaussian 16:  EM64M-G16RevA.03 25-Dec-2016

 ---------------------
 # freq b3lyp/6-31g(d)
 ---------------------

 ---------
 good luck
 ---------
 Symbolic Z-matrix:
 Charge =  0 Multiplicity = 1

                         Standard orientation:
 ---------------------------------------------------------------------
 Center     Atomic      Atomic             Coordinates (Angstroms)
 Number     Number       Type             X           Y           Z
 ---------------------------------------------------------------------
      1          8           0        0.107505    2.987939   -0.059187
      2          6           0        0.477680    1.832130   -0.149773
      3          6           0        1.948397    1.446221   -0.057017
      4          6           0        2.176342    0.298167    0.943528
      5          6           0        1.245329   -0.889750    0.697893
      6         17           0        1.750533   -1.748888   -0.858614
      7          6           0       -0.230046   -0.466445    0.659324
      8          6           0       -1.213763   -1.632496    0.463243
      9          6           0       -2.673741   -1.158027    0.507186
     10          6           0       -2.929880   -0.046688   -0.521007
     11          6           0       -1.963404    1.129450   -0.327670
     12          6           0       -0.497905    0.673270   -0.362965
     13          1           0        2.525204    2.334141    0.216009
     14          1           0        2.279360    1.120812   -1.052783
     15          1           0        3.220910   -0.027888    0.920628
     16          1           0        1.976159    0.656186    1.963614
     17          1           0        1.390778   -1.652696    1.466692
     18          1           0       -0.413356   -0.049454    1.665082
     19          1           0       -1.035661   -2.394705    1.233867
     20          1           0       -1.012921   -2.110470   -0.503808
     21          1           0       -2.907126   -0.781932    1.514282
     22          1           0       -3.344486   -2.007469    0.328393
     23          1           0       -3.966104    0.306203   -0.448353
     24          1           0       -2.810315   -0.457325   -1.534466
     25          1           0       -2.159695    1.618382    0.636168
     26          1           0       -2.123034    1.897708   -1.091350
     27          1           0       -0.272865    0.261107   -1.360491
 ---------------------------------------------------------------------

 SCF Done:  E(RB3LYP) =  -925.541934528     A.U. after   14 cycles

 The electronic state is 1-A.
 Alpha  occ. eigenvalues -- -101.53367 -19.13908 -10.27286 -10.25992 -10.21307
 Alpha  occ. eigenvalues --  -10.21055 -10.19903 -10.19658 -10.18894 -10.18569
 Alpha  occ. eigenvalues --  -10.18292 -10.18128  -9.44999  -7.21355  -7.20434
 Alpha  occ. eigenvalues --   -7.20429  -1.03791  -0.88041  -0.82966  -0.79524
 Alpha  occ. eigenvalues --   -0.75572  -0.75138  -0.70789  -0.63106  -0.62687
 Alpha  occ. eigenvalues --   -0.58220  -0.56463  -0.53058  -0.49056  -0.47665
 Alpha  occ. eigenvalues --   -0.47269  -0.45244  -0.45133  -0.43598  -0.42207
 Alpha  occ. eigenvalues --   -0.41639  -0.40401  -0.38049  -0.37565  -0.37214
 Alpha  occ. eigenvalues --   -0.36173  -0.35510  -0.34880  -0.33994  -0.32653
 Alpha  occ. eigenvalues --   -0.31672  -0.31168  -0.29644  -0.29389  -0.24043
 Alpha virt. eigenvalues --   -0.01794   0.01796   0.07274   0.09106   0.10193
 Alpha virt. eigenvalues --    0.12256   0.13251   0.13667   0.14876   0.15123
 Alpha virt. eigenvalues --    0.16048   0.16745   0.17191   0.17587   0.17863

 Mulliken charges:
               1
     1  O   -0.449372
     2  C    0.446409
     3  C   -0.346892
     4  C   -0.274811
     5  C   -0.213718
     6  Cl  -0.112159
     7  C   -0.096897
     8  C   -0.263507
     9  C   -0.262805
    10  C   -0.266449
    11  C   -0.255356
    12  C   -0.182611
    13  H    0.167472
    14  H    0.180318
    15  H    0.168381
    16  H    0.157343
    17  H    0.186362
    18  H    0.139763
    19  H    0.132081
    20  H    0.156816
    21  H    0.129830
    22  H    0.136947
    23  H    0.136570
    24  H    0.132067
    25  H    0.139802
    26  H    0.151703
    27  H    0.162712
 Sum of Mulliken charges =  -0.00000

 Dipole moment (field-independent basis, Debye):
    X=             -0.1066    Y=             -1.5723    Z=              1.5138  Tot=              2.1852
 Quadrupole moment (field-independent basis, Debye-Ang):
   XX=            -77.2381   YY=            -92.9130   ZZ=            -76.9911
   XY=              3.9303   XZ=              2.7095   YZ=             -2.3169

  Exact polarizability: 119.606  -0.796 114.702  -0.496   2.761  94.496
 Approx polarizability: 150.301  -8.648 168.629  -5.847  11.981 155.554

                      1                      2                      3
                      A                      A                      A
 Frequencies --     70.1104                89.2840               135.7817
 Red. masses --      6.2244                 3.6123                 3.5544
 Frc consts  --      0.0180                 0.0170                 0.0386
 IR Inten    --      3.7181                 1.0495                 0.6516

                      4                      5                      6
                      A                      A                      A
 Frequencies --    171.4554               213.6588               265.2877
 Red. masses --      4.2375                 3.5957                 4.5395
 Frc consts  --      0.0734                 0.0967                 0.1882
 IR Inten    --      2.1738                 0.6436                 6.8218

                      7                      8                      9
                      A                      A                      A
 Frequencies --    295.9967               312.4998               352.0053
 Red. masses --      2.2744                 2.1272                 2.1715
 Frc consts  --      0.1174                 0.1224                 0.1585
 IR Inten    --      1.0856                 0.7701                 0.8760

                     10                     11                     12
                      A                      A                      A
 Frequencies --    384.7239               415.6531               456.2904
 Red. masses --      3.9327                 3.5256                 3.0055
 Frc consts  --      0.3430                 0.3589                 0.3687
 IR Inten    --      0.2704                 1.5996                 2.3473

                     13                     14                     15
                      A                      A                      A
 Frequencies --    474.4317               528.5166               571.3851
 Red. masses --      2.3785                 2.7335                 3.2403
 Frc consts  --      0.3154                 0.4499                 0.6233
 IR Inten    --      1.4871                 3.5215                 6.8877

                     16                     17                     18
                      A                      A                      A
 Frequencies --    584.9206               619.4050               748.0524
 Red. masses --      3.0561                 5.3642                 2.7909
 Frc consts  --      0.6160                 1.2126                 0.9202
 IR Inten    --     24.0902                 1.2565                15.7949

                     19                     20                     21
                      A                      A                      A
 Frequencies --    786.2228               822.8584               843.1218
 Red. masses --      1.9920                 2.1233                 2.9754
 Frc consts  --      0.7255                 0.8471                 1.2462
 IR Inten    --      0.1148                 2.0340                 8.5355

                     22                     23                     24
                      A                      A                      A
 Frequencies --    861.5327               875.7818               903.6995
 Red. masses --      1.7312                 2.3596                 2.8138
 Frc consts  --      0.7571                 1.0663                 1.3539
 IR Inten    --      2.2172                 5.4801                 4.4253

                     25                     26                     27
                      A                      A                      A
 Frequencies --    910.9948               974.7512               987.8086
 Red. masses --      1.4066                 2.3227                 1.8018
 Frc consts  --      0.6878                 1.3003                 1.0359
 IR Inten    --      9.9505                 0.9139                 0.7523

                     28                     29                     30
                      A                      A                      A
 Frequencies --   1024.0428              1039.5422              1060.5456
 Red. masses --      2.0986                 2.2400                 1.5776
 Frc consts  --      1.2966                 1.4262                 1.0455
 IR Inten    --      1.1111                10.9734                 3.4913

                     31                     32                     33
                      A                      A                      A
 Frequencies --   1073.1042              1088.4947              1105.6187
 Red. masses --      1.3747                 1.5508                 2.6487
 Frc consts  --      0.9327                 1.0826                 1.9077
 IR Inten    --      0.6101                 1.3323                 0.3764

                     34                     35                     36
                      A                      A                      A
 Frequencies --   1129.8824              1155.5762              1168.6749
 Red. masses --      1.9626                 2.0185                 2.3853
 Frc consts  --      1.4762                 1.5881                 1.9194
 IR Inten    --     12.8436                 7.1168                25.7650

                     37                     38                     39
                      A                      A                      A
 Frequencies --   1203.1609              1234.5520              1254.9306
 Red. masses --      1.2565                 1.3277                 1.4645
 Frc consts  --      1.0716                 1.1922                 1.3588
 IR Inten    --      3.7882                 8.8828                 7.1828

                     40                     41                     42
                      A                      A                      A
 Frequencies --   1266.2023              1280.4517              1297.4584
 Red. masses --      1.3853                 1.4383                 1.2684
 Frc consts  --      1.3085                 1.3894                 1.2581
 IR Inten    --      2.6314                 8.7366                13.2038

                     43                     44                     45
                      A                      A                      A
 Frequencies --   1322.9693              1336.4743              1343.8714
 Red. masses --      1.2643                 1.2906                 1.3726
 Frc consts  --      1.3038                 1.3582                 1.4605
 IR Inten    --      1.1585                 9.7773                 1.4535

                     46                     47                     48
                      A                      A                      A
 Frequencies --   1346.0847              1366.6078              1384.3639
 Red. masses --      1.3280                 1.4377                 1.4181
 Frc consts  --      1.4178                 1.5820                 1.6012
 IR Inten    --      8.0122                 8.8112                 4.9544

                     49                     50                     51
                      A                      A                      A
 Frequencies --   1389.8572              1395.9332              1398.8434
 Red. masses --      1.4593                 1.4148                 1.4659
 Frc consts  --      1.6609                 1.6244                 1.6900
 IR Inten    --      1.6355                 4.5242                 8.0544

                     52                     53                     54
                      A                      A                      A
 Frequencies --   1405.6393              1413.7649              1496.5663
 Red. masses --      1.4807                 1.6940                 1.0860
 Frc consts  --      1.7238                 1.9949                 1.4331
 IR Inten    --      6.1330                 5.7879                 9.6878

                     55                     56                     57
                      A                      A                      A
 Frequencies --   1512.9912              1514.5858              1516.5565
 Red. masses --      1.0901                 1.0891                 1.0943
 Frc consts  --      1.4703                 1.4720                 1.4829
 IR Inten    --      3.1235                 6.4500                 1.8076

                     58                     59                     60
                      A                      A                      A
 Frequencies --   1519.5966              1532.1873              1809.1749
 Red. masses --      1.0812                 1.0987                11.6149
 Frc consts  --      1.4710                 1.5197                22.3989
 IR Inten    --      9.4533                 0.1031               168.5097

                     61                     62                     63
                      A                      A                      A
 Frequencies --   2977.8628              3005.9204              3022.1244
 Red. masses --      1.0809                 1.0811                 1.0701
 Frc consts  --      5.6476                 5.7553                 5.7583
 IR Inten    --      9.2009                 6.7109                16.7029

                     64                     65                     66
                      A                      A                      A
 Frequencies --   3027.5563              3037.6614              3039.3060
 Red. masses --      1.0637                 1.0693                 1.0628
 Frc consts  --      5.7443                 5.8132                 5.7841
 IR Inten    --     30.5348                17.1773                27.7117

                     67                     68                     69
                      A                      A                      A
 Frequencies --   3047.2455              3052.3327              3074.4140
 Red. masses --      1.0673                 1.0648                 1.0960
 Frc consts  --      5.8389                 5.8449                 6.1034
 IR Inten    --     16.2037                11.7152                48.3748

                     70                     71                     72
                      A                      A                      A
 Frequencies --   3077.0997              3087.3709              3102.2274
 Red. masses --      1.0969                 1.1016                 1.0977
 Frc consts  --      6.1195                 6.1864                 6.2244
 IR Inten    --     52.1392                40.4882                28.6717

                     73                     74                     75
                      A                      A                      A
 Frequencies --   3106.0645              3112.0271              3126.0995
 Red. masses --      1.0953                 1.0878                 1.0979
 Frc consts  --      6.2257                 6.2073                 6.3214
 IR Inten    --     19.4961                22.4143                15.6682

 - Thermochemistry -
 -------------------
 Temperature   298.150 Kelvin.  Pressure   1.00000 Atm.
 Atom     1 has atomic number  8 and mass  15.99491

 Molecular mass:   186.08114 amu.
 Principal axes and moments of inertia in atomic units:
                           1         2         3
     Eigenvalues --  1811.736232330.019203567.78986
           X            0.99330   0.11431   0.01686
           Y           -0.11393   0.99325  -0.02183
           Z           -0.01924   0.01976   0.99962
 This molecule is an asymmetric top.
 Rotational symmetry number  1.
 Warning -- assumption of classical behavior for rotation
           may cause significant error
 Rotational temperatures (Kelvin)      0.04781     0.03717     0.02428
 Rotational constants (GHZ):           0.99614     0.77456     0.50584
 Zero-point vibrational energy     621698.4 (Joules/Mol)
                                  148.58947 (Kcal/Mol)
 Warning -- explicit consideration of  17 degrees of freedom as
           vibrations may cause significant error
 Vibrational temperatures:    100.87   128.46   195.36   246.69   307.41
          (Kelvin)            381.69   425.87   449.62   506.46   553.53
                              598.03   656.50   682.60   760.42   822.10
                              841.57   891.19  1076.28  1131.20  1183.91
                             1213.06  1239.55  1260.05  1300.22  1310.72
                             1402.45  1421.24  1473.37  1495.67  1525.89
                             1543.96  1566.10  1590.74  1625.65  1662.62
                             1681.46  1731.08  1776.25  1805.57  1821.78
                             1842.28  1866.75  1903.46  1922.89  1933.53
                             1936.72  1966.24  1991.79  1999.69  2008.44
                             2012.62  2022.40  2034.09  2153.23  2176.86
                             2179.15  2181.99  2186.36  2204.48  2603.00
                             4284.48  4324.85  4348.16  4355.98  4370.52
                             4372.88  4384.31  4391.63  4423.40  4427.26
                             4442.04  4463.41  4468.93  4477.51  4497.76

 Zero-point correction=                           0.236792 (Hartree/Particle)
 Thermal correction to Energy=                    0.247520
 Thermal correction to Enthalpy=                  0.248464
 Thermal correction to Gibbs Free Energy=         0.200253
 Sum of electronic and zero-point Energies=           -925.305142
 Sum of electronic and thermal Energies=              -925.294415
 Sum of electronic and thermal Enthalpies=            -925.293470
 Sum of electronic and thermal Free Energies=         -925.341681

                     E (Thermal)             CV                S
                      KCal/Mol        Cal/Mol-Kelvin    Cal/Mol-Kelvin
 Total                  155.321             42.898            101.468
 Electronic               0.000              0.000              0.000
 Translational            0.889              2.981             41.569
 Rotational               0.889              2.981             31.088
 Vibrational            153.544             36.936             28.811
 Vibration     1          0.598              1.968              4.150
 Vibration     2          0.602              1.957              3.676
 Vibration     3          0.614              1.918              2.862
 Vibration     4          0.626              1.878              2.419
 Vibration     5          0.644              1.820              2.012
 Vibration     6          0.671              1.737              1.627
 Vibration     7          0.690              1.681              1.439
 Vibration     8          0.701              1.650              1.349
 Vibration     9          0.729              1.571              1.157
 Vibration    10          0.754              1.503              1.021
 Vibration    11          0.779              1.436              0.907
 Vibration    12          0.815              1.347              0.777
 Vibration    13          0.831              1.307              0.725
 Vibration    14          0.883              1.187              0.591
 Vibration    15          0.928              1.093              0.502
 Vibration    16          0.942              1.064              0.476
 Vibration    17          0.979              0.991              0.417

 Normal termination of Gaussian 16 at Sat Feb 24 02:43:37 2024.
