 Gaussian 16, Revision A.03,
 Gaussian 16:  EM64M-G16RevA.03 25-Dec-2016

 ---------------------
 # freq b3lyp/6-31g(d)
 ---------------------

 ---------
 good luck
 ---------
 Symbolic Z-matrix:
 Charge =  0 Multiplicity = 1

                         Standard orientation:
 ---------------------------------------------------------------------
 Center     Atomic      Atomic             Coordinates (Angstroms)
 Number     Number       Type             X           Y           Z
 ---------------------------------------------------------------------
      1          8           0        0.346842    2.741241    0.245088
      2          6           0        0.313063    1.610755   -0.204266
      3          6           0       -0.977031    0.950646   -0.670719
      4          6           0       -1.206205   -0.437615   -0.011166
      5          6           0       -1.526009   -0.251811    1.486395
      6          6           0       -2.399106   -1.130930   -0.692025
      7          6           0        0.065892   -1.299820   -0.206019
      8          6           0        1.366677   -0.651424    0.301354
      9          6           0        2.583130   -1.548043    0.040774
     10          6           0        1.557480    0.744027   -0.336253
     11          1           0       -0.907979    0.814898   -1.761152
     12          1           0       -1.811308    1.631074   -0.471260
     13          1           0       -1.646694   -1.222811    1.982060
     14          1           0       -2.460208    0.307687    1.613715
     15          1           0       -0.743746    0.301423    2.017198
     16          1           0       -2.597294   -2.108394   -0.235061
     17          1           0       -3.310758   -0.528261   -0.599785
     18          1           0       -2.209471   -1.292412   -1.760318
     19          1           0       -0.076674   -2.269723    0.290333
     20          1           0        0.180771   -1.518290   -1.279413
     21          1           0        1.283851   -0.511338    1.388188
     22          1           0        2.466083   -2.523996    0.526665
     23          1           0        2.719196   -1.723701   -1.034208
     24          1           0        3.502885   -1.090505    0.423492
     25          1           0        2.406597    1.278310    0.101255
     26          1           0        1.762673    0.611398   -1.410857
 ---------------------------------------------------------------------

 SCF Done:  E(RB3LYP) =  -427.833832022     A.U. after   14 cycles

 The electronic state is 1-A.
 Alpha  occ. eigenvalues --  -19.13098 -10.26683 -10.20742 -10.19945 -10.18757
 Alpha  occ. eigenvalues --  -10.18626 -10.18611 -10.18088 -10.17892 -10.17744
 Alpha  occ. eigenvalues --   -1.02957  -0.84731  -0.79291  -0.73668  -0.69004
 Alpha  occ. eigenvalues --   -0.68759  -0.68424  -0.58268  -0.55550  -0.52310
 Alpha  occ. eigenvalues --   -0.47732  -0.46293  -0.45731  -0.44486  -0.43493
 Alpha  occ. eigenvalues --   -0.41478  -0.40731  -0.39606  -0.38279  -0.38029
 Alpha  occ. eigenvalues --   -0.37594  -0.36807  -0.35640  -0.35365  -0.33564
 Alpha  occ. eigenvalues --   -0.31967  -0.31442  -0.30996  -0.23313
 Alpha virt. eigenvalues --   -0.01038   0.07285   0.09974   0.10633   0.12369
 Alpha virt. eigenvalues --    0.13245   0.14034   0.14527   0.15364   0.15817
 Alpha virt. eigenvalues --    0.16276   0.17218   0.17813   0.18334   0.19334

 Mulliken charges:
               1
     1  O   -0.451659
     2  C    0.446067
     3  C   -0.340361
     4  C    0.079878
     5  C   -0.454602
     6  C   -0.445044
     7  C   -0.258010
     8  C   -0.095532
     9  C   -0.444216
    10  C   -0.339624
    11  H    0.146420
    12  H    0.156320
    13  H    0.141350
    14  H    0.147523
    15  H    0.154656
    16  H    0.142099
    17  H    0.144074
    18  H    0.138828
    19  H    0.131530
    20  H    0.123330
    21  H    0.137904
    22  H    0.144830
    23  H    0.140753
    24  H    0.147323
    25  H    0.159235
    26  H    0.146927
 Sum of Mulliken charges =  -0.00000

 Dipole moment (field-independent basis, Debye):
    X=             -0.1461    Y=             -2.9298    Z=             -0.7962  Tot=              3.0396
 Quadrupole moment (field-independent basis, Debye-Ang):
   XX=            -61.1938   YY=            -73.4472   ZZ=            -61.7062
   XY=             -1.1908   XZ=             -0.2562   YZ=             -2.3491

  Exact polarizability: 101.043  -0.393  97.590   0.503   2.056  81.530
 Approx polarizability: 127.182   0.247 143.164   0.335   7.287 125.263

                      1                      2                      3
                      A                      A                      A
 Frequencies --     87.0961               111.8935               153.6700
 Red. masses --      4.5600                 2.6464                 2.4870
 Frc consts  --      0.0204                 0.0195                 0.0346
 IR Inten    --      2.8703                 0.9902                 0.1536

                      4                      5                      6
                      A                      A                      A
 Frequencies --    223.5401               240.9102               244.8524
 Red. masses --      1.1529                 1.0850                 1.4565
 Frc consts  --      0.0339                 0.0371                 0.0514
 IR Inten    --      0.1157                 0.0766                 0.0522

                      7                      8                      9
                      A                      A                      A
 Frequencies --    274.5313               290.8483               317.0223
 Red. masses --      1.4324                 2.0205                 2.5337
 Frc consts  --      0.0636                 0.1007                 0.1500
 IR Inten    --      0.2214                 1.0973                 0.3497

                     10                     11                     12
                      A                      A                      A
 Frequencies --    361.2205               390.7420               416.6373
 Red. masses --      2.8434                 2.9509                 2.5045
 Frc consts  --      0.2186                 0.2654                 0.2561
 IR Inten    --      0.7917                 0.4343                 0.3142

                     13                     14                     15
                      A                      A                      A
 Frequencies --    435.7447               454.2953               507.1462
 Red. masses --      2.2770                 1.9270                 2.5492
 Frc consts  --      0.2547                 0.2343                 0.3863
 IR Inten    --      0.7885                 0.4472                 0.6558

                     16                     17                     18
                      A                      A                      A
 Frequencies --    532.5185               619.9652               776.5170
 Red. masses --      3.0668                 4.2370                 2.8321
 Frc consts  --      0.5124                 0.9595                 1.0061
 IR Inten    --     12.6902                 1.1694                 0.1209

                     19                     20                     21
                      A                      A                      A
 Frequencies --    839.8727               851.9716               864.5724
 Red. masses --      2.6511                 1.7581                 2.2656
 Frc consts  --      1.1018                 0.7519                 0.9978
 IR Inten    --      2.5023                 1.5986                 0.3927

                     22                     23                     24
                      A                      A                      A
 Frequencies --    903.8670               929.9400               944.6231
 Red. masses --      1.8402                 1.9839                 1.7929
 Frc consts  --      0.8858                 1.0108                 0.9426
 IR Inten    --      3.2623                 1.3207                 0.1536

                     25                     26                     27
                      A                      A                      A
 Frequencies --    957.7065               979.1879              1000.4281
 Red. masses --      1.4745                 1.7019                 1.6310
 Frc consts  --      0.7968                 0.9614                 0.9618
 IR Inten    --      0.3668                 0.2352                 1.0746

                     28                     29                     30
                      A                      A                      A
 Frequencies --   1036.1010              1065.4802              1090.0471
 Red. masses --      1.2884                 1.5029                 2.4315
 Frc consts  --      0.8149                 1.0052                 1.7022
 IR Inten    --      0.5482                 0.5975                 0.1633

                     31                     32                     33
                      A                      A                      A
 Frequencies --   1107.6597              1163.0477              1187.6806
 Red. masses --      1.4953                 2.0192                 1.6599
 Frc consts  --      1.0809                 1.6092                 1.3796
 IR Inten    --     12.6809                 1.4229                 1.4412

                     34                     35                     36
                      A                      A                      A
 Frequencies --   1208.9675              1251.8237              1262.7250
 Red. masses --      2.1626                 1.8914                 1.9683
 Frc consts  --      1.8623                 1.7463                 1.8491
 IR Inten    --      1.5626                39.0128                10.7447

                     37                     38                     39
                      A                      A                      A
 Frequencies --   1298.1132              1306.3204              1323.7557
 Red. masses --      1.7169                 1.8290                 1.3388
 Frc consts  --      1.7046                 1.8389                 1.3822
 IR Inten    --      5.5925                34.7585                 1.1875

                     40                     41                     42
                      A                      A                      A
 Frequencies --   1335.8905              1358.6426              1385.7904
 Red. masses --      1.5683                 1.5569                 1.3698
 Frc consts  --      1.6490                 1.6933                 1.5499
 IR Inten    --      3.0499                 2.7060                 9.5306

                     43                     44                     45
                      A                      A                      A
 Frequencies --   1411.4120              1431.0219              1439.0458
 Red. masses --      1.5633                 1.2342                 1.2356
 Frc consts  --      1.8349                 1.4891                 1.5075
 IR Inten    --      6.1498                 5.5776                 2.0720

                     46                     47                     48
                      A                      A                      A
 Frequencies --   1451.4782              1489.9101              1496.1425
 Red. masses --      1.2220                 1.0997                 1.0872
 Frc consts  --      1.5168                 1.4383                 1.4338
 IR Inten    --      4.1300                 5.1501                 3.9675

                     49                     50                     51
                      A                      A                      A
 Frequencies --   1511.0076              1516.7543              1524.6691
 Red. masses --      1.0715                 1.0499                 1.0602
 Frc consts  --      1.4414                 1.4230                 1.4521
 IR Inten    --      0.4586                 0.1217                 2.4655

                     52                     53                     54
                      A                      A                      A
 Frequencies --   1527.9171              1528.7739              1534.6489
 Red. masses --      1.0452                 1.0582                 1.0576
 Frc consts  --      1.4377                 1.4571                 1.4676
 IR Inten    --     12.5277                 2.0730                 4.0609

                     55                     56                     57
                      A                      A                      A
 Frequencies --   1539.4386              1815.2554              3007.8037
 Red. masses --      1.0541                10.9491                 1.0653
 Frc consts  --      1.4719                21.2572                 5.6781
 IR Inten    --      5.7630               189.9084                16.5651

                     58                     59                     60
                      A                      A                      A
 Frequencies --   3009.1125              3021.6540              3032.6335
 Red. masses --      1.0685                 1.0672                 1.0707
 Frc consts  --      5.7006                 5.7411                 5.8018
 IR Inten    --      2.9992                15.7833                 6.5003

                     61                     62                     63
                      A                      A                      A
 Frequencies --   3036.6102              3039.8276              3046.2746
 Red. masses --      1.0361                 1.0433                 1.0391
 Frc consts  --      5.6290                 5.6804                 5.6814
 IR Inten    --     36.6849                50.3300                11.4509

                     64                     65                     66
                      A                      A                      A
 Frequencies --   3059.1537              3102.8531              3103.2285
 Red. masses --      1.0968                 1.1015                 1.1009
 Frc consts  --      6.0478                 6.2483                 6.2463
 IR Inten    --     38.3682                 3.6603                41.0089

                     67                     68                     69
                      A                      A                      A
 Frequencies --   3104.4100              3106.7118              3110.5283
 Red. masses --      1.1011                 1.0988                 1.1006
 Frc consts  --      6.2524                 6.2484                 6.2739
 IR Inten    --      4.6648                25.3013                18.3891

                     70                     71                     72
                      A                      A                      A
 Frequencies --   3111.6605              3113.0411              3117.9335
 Red. masses --      1.0999                 1.0972                 1.1009
 Frc consts  --      6.2745                 6.2650                 6.3058
 IR Inten    --     59.0434                43.2352                40.5696

 - Thermochemistry -
 -------------------
 Temperature   298.150 Kelvin.  Pressure   1.00000 Atm.
 Atom     1 has atomic number  8 and mass  15.99491

 Molecular mass:   140.12012 amu.
 Principal axes and moments of inertia in atomic units:
                           1         2         3
     Eigenvalues --  1211.446571430.934422164.56831
           X            0.99810  -0.06165  -0.00196
           Y            0.06164   0.99809  -0.00279
           Z            0.00213   0.00266   0.99999
 This molecule is an asymmetric top.
 Rotational symmetry number  1.
 Warning -- assumption of classical behavior for rotation
           may cause significant error
 Rotational temperatures (Kelvin)      0.07150     0.06053     0.04001
 Rotational constants (GHZ):           1.48974     1.26123     0.83376
 Zero-point vibrational energy     618674.4 (Joules/Mol)
                                  147.86672 (Kcal/Mol)
 Warning -- explicit consideration of  17 degrees of freedom as
           vibrations may cause significant error
 Vibrational temperatures:    125.31   160.99   221.10   321.62   346.62
          (Kelvin)            352.29   394.99   418.47   456.12   519.72
                              562.19   599.45   626.94   653.63   729.67
                              766.18   891.99  1117.23  1208.39  1225.80
                             1243.93  1300.46  1337.98  1359.10  1377.93
                             1408.83  1439.39  1490.72  1532.99  1568.33
                             1593.68  1673.37  1708.81  1739.43  1801.10
                             1816.78  1867.70  1879.50  1904.59  1922.05
                             1954.78  1993.84  2030.71  2058.92  2070.47
                             2088.35  2143.65  2152.62  2174.00  2182.27
                             2193.66  2198.33  2199.56  2208.02  2214.91
                             2611.75  4327.56  4329.44  4347.49  4363.28
                             4369.00  4373.63  4382.91  4401.44  4464.31
                             4464.85  4466.55  4469.87  4475.36  4476.99
                             4478.97  4486.01

 Zero-point correction=                           0.235641 (Hartree/Particle)
 Thermal correction to Energy=                    0.246315
 Thermal correction to Enthalpy=                  0.247259
 Thermal correction to Gibbs Free Energy=         0.200529
 Sum of electronic and zero-point Energies=           -427.598191
 Sum of electronic and thermal Energies=              -427.587518
 Sum of electronic and thermal Enthalpies=            -427.586573
 Sum of electronic and thermal Free Energies=         -427.633304

                     E (Thermal)             CV                S
                      KCal/Mol        Cal/Mol-Kelvin    Cal/Mol-Kelvin
 Total                  154.565             41.810             98.352
 Electronic               0.000              0.000              0.000
 Translational            0.889              2.981             40.724
 Rotational               0.889              2.981             29.707
 Vibrational            152.787             35.849             27.921
 Vibration     1          0.601              1.958              3.724
 Vibration     2          0.607              1.940              3.236
 Vibration     3          0.619              1.899              2.626
 Vibration     4          0.649              1.805              1.930
 Vibration     5          0.658              1.778              1.796
 Vibration     6          0.660              1.771              1.767
 Vibration     7          0.677              1.720              1.568
 Vibration     8          0.687              1.691              1.469
 Vibration     9          0.704              1.641              1.325
 Vibration    10          0.735              1.552              1.117
 Vibration    11          0.758              1.490              0.997
 Vibration    12          0.780              1.434              0.903
 Vibration    13          0.796              1.392              0.840
 Vibration    14          0.813              1.351              0.783
 Vibration    15          0.862              1.234              0.640
 Vibration    16          0.887              1.178              0.582
 Vibration    17          0.980              0.990              0.417

 Normal termination of Gaussian 16 at Wed Feb 21 21:15:43 2024.
