 Gaussian 16, Revision A.03,
 Gaussian 16:  EM64M-G16RevA.03 25-Dec-2016

 ---------------------
 # freq b3lyp/6-31g(d)
 ---------------------

 ---------
 good luck
 ---------
 Symbolic Z-matrix:
 Charge =  0 Multiplicity = 1

                         Standard orientation:
 ---------------------------------------------------------------------
 Center     Atomic      Atomic             Coordinates (Angstroms)
 Number     Number       Type             X           Y           Z
 ---------------------------------------------------------------------
      1          8           0       -2.246385    2.177257   -0.000000
      2          6           0       -1.266641    1.458645   -0.000000
      3          6           0       -0.575434    0.962189    1.268875
      4          6           0       -0.575434   -0.589925    1.258583
      5          6           0        0.885483    1.479068    1.259044
      6          6           0        1.609308    0.961231    0.000000
      7          6           0        0.885483    1.479068   -1.259044
      8          6           0       -0.575434    0.962189   -1.268875
      9          6           0       -0.575434   -0.589925   -1.258583
     10          6           0        0.155500   -1.082022    0.000000
     11         17           0        0.153864   -2.925948   -0.000000
     12          6           0        1.608226   -0.585491    0.000000
     13          1           0       -1.124600    1.339485    2.136907
     14          1           0       -0.072521   -0.967588    2.156511
     15          1           0       -1.601230   -0.975178    1.270373
     16          1           0        1.399027    1.135125    2.166645
     17          1           0        0.895634    2.576221    1.280049
     18          1           0        2.647037    1.317367    0.000000
     19          1           0        0.895634    2.576221   -1.280049
     20          1           0        1.399027    1.135125   -2.166645
     21          1           0       -1.124600    1.339485   -2.136907
     22          1           0       -0.072521   -0.967588   -2.156511
     23          1           0       -1.601230   -0.975178   -1.270373
     24          1           0        2.131006   -0.970307    0.883462
     25          1           0        2.131006   -0.970307   -0.883462
 ---------------------------------------------------------------------

 SCF Done:  E(RB3LYP) =  -924.337291970     A.U. after   14 cycles

 The electronic state is 1-A'.
 Alpha  occ. eigenvalues -- -101.52860 -19.14219 -10.27357 -10.26297 -10.20857
 Alpha  occ. eigenvalues --  -10.20606 -10.20604 -10.20521 -10.20520 -10.20199
 Alpha  occ. eigenvalues --  -10.20198 -10.20040  -9.44492  -7.20848  -7.19926
 Alpha  occ. eigenvalues --   -7.19925  -1.04068  -0.89969  -0.83683  -0.79284
 Alpha  occ. eigenvalues --   -0.78025  -0.74919  -0.69075  -0.66068  -0.61601
 Alpha  occ. eigenvalues --   -0.59513  -0.58064  -0.51741  -0.47453  -0.47359
 Alpha  occ. eigenvalues --   -0.46539  -0.45432  -0.45260  -0.43135  -0.42898
 Alpha  occ. eigenvalues --   -0.41599  -0.41518  -0.40187  -0.37629  -0.37569
 Alpha  occ. eigenvalues --   -0.35915  -0.35611  -0.35256  -0.32451  -0.31800
 Alpha  occ. eigenvalues --   -0.31581  -0.29111  -0.29088  -0.23954
 Alpha virt. eigenvalues --   -0.02011   0.01301   0.07502   0.10855   0.10963
 Alpha virt. eigenvalues --    0.11959   0.12621   0.12704   0.13732   0.14980
 Alpha virt. eigenvalues --    0.15769   0.16438   0.17936   0.18229   0.18474

 Mulliken charges:
               1
     1  O   -0.452281
     2  C    0.457366
     3  C   -0.177594
     4  C   -0.265766
     5  C   -0.281932
     6  C   -0.105680
     7  C   -0.281932
     8  C   -0.177594
     9  C   -0.265766
    10  C   -0.086495
    11  Cl  -0.092628
    12  C   -0.253370
    13  H    0.153003
    14  H    0.158233
    15  H    0.165096
    16  H    0.144229
    17  H    0.150514
    18  H    0.136823
    19  H    0.150514
    20  H    0.144229
    21  H    0.153003
    22  H    0.158233
    23  H    0.165096
    24  H    0.152348
    25  H    0.152348
 Sum of Mulliken charges =  -0.00000

 Dipole moment (field-independent basis, Debye):
    X=              2.5917    Y=              0.8212    Z=              0.0000  Tot=              2.7187
 Quadrupole moment (field-independent basis, Debye-Ang):
   XX=            -82.8208   YY=            -89.9761   ZZ=            -74.3364
   XY=              7.8740   XZ=              0.0000   YZ=             -0.0000

  Exact polarizability: 100.623  -4.902 120.362   0.000   0.000  97.147
 Approx polarizability: 153.881 -11.295 173.900   0.000  -0.000 143.211

                      1                      2                      3
                     A'                     A"                     A'
 Frequencies --     93.9279               203.3798               233.8831
 Red. masses --     10.8449                 3.8667                 4.4770
 Frc consts  --      0.0564                 0.0942                 0.1443
 IR Inten    --      4.2933                 1.5625                 0.5723

                      4                      5                      6
                     A"                     A"                     A'
 Frequencies --    276.9803               319.1730               339.3595
 Red. masses --      2.3955                 2.7067                 7.6100
 Frc consts  --      0.1083                 0.1625                 0.5164
 IR Inten    --      0.9460                 1.0730                 9.0205

                      7                      8                      9
                     A'                     A"                     A'
 Frequencies --    369.9866               395.3199               403.9289
 Red. masses --      5.4378                 4.7966                 2.2783
 Frc consts  --      0.4386                 0.4417                 0.2190
 IR Inten    --      2.0393                 0.1282                 3.4294

                     10                     11                     12
                     A"                     A'                     A"
 Frequencies --    445.6525               451.7748               469.8200
 Red. masses --      1.8793                 1.8701                 4.0332
 Frc consts  --      0.2199                 0.2249                 0.5245
 IR Inten    --      2.0792                 3.2780                 8.5864

                     13                     14                     15
                     A'                     A"                     A'
 Frequencies --    611.4870               632.6930               673.8966
 Red. masses --      5.3886                 3.4905                 5.6806
 Frc consts  --      1.1871                 0.8232                 1.5200
 IR Inten    --      0.8041                 0.9966                13.0212

                     16                     17                     18
                     A'                     A'                     A'
 Frequencies --    718.9167               787.6699               798.6320
 Red. masses --      3.9958                 3.7470                 3.1757
 Frc consts  --      1.2168                 1.3697                 1.1934
 IR Inten    --      3.6308                 0.3257                10.2769

                     19                     20                     21
                     A'                     A"                     A"
 Frequencies --    832.5285               855.6419               902.9508
 Red. masses --      3.2335                 2.6832                 1.5656
 Frc consts  --      1.3204                 1.1574                 0.7521
 IR Inten    --     46.2454                 0.9891                 3.1768

                     22                     23                     24
                     A'                     A"                     A"
 Frequencies --    906.4005               911.8000               947.4508
 Red. masses --      2.3275                 1.5721                 2.1918
 Frc consts  --      1.1266                 0.7701                 1.1592
 IR Inten    --      5.2552                 1.3960                 0.9098

                     25                     26                     27
                     A'                     A'                     A"
 Frequencies --    963.3045               990.8608              1025.1085
 Red. masses --      2.2173                 2.1079                 2.0186
 Frc consts  --      1.2123                 1.2194                 1.2498
 IR Inten    --      5.2822                 0.4027                 2.0241

                     28                     29                     30
                     A'                     A'                     A"
 Frequencies --   1041.1354              1048.7163              1068.4751
 Red. masses --      6.4135                 2.3257                 1.8905
 Frc consts  --      4.0960                 1.5070                 1.2716
 IR Inten    --     29.5952                 0.1578                12.3731

                     31                     32                     33
                     A"                     A'                     A'
 Frequencies --   1077.4303              1093.4675              1122.6859
 Red. masses --      1.8842                 1.7415                 1.3887
 Frc consts  --      1.2887                 1.2268                 1.0313
 IR Inten    --     21.9321                 0.6003                 1.2086

                     34                     35                     36
                     A"                     A"                     A'
 Frequencies --   1135.4044              1158.8802              1207.8696
 Red. masses --      1.1857                 1.1337                 1.1209
 Frc consts  --      0.9006                 0.8970                 0.9635
 IR Inten    --      0.0537                 0.0001                 0.4186

                     37                     38                     39
                     A"                     A"                     A'
 Frequencies --   1237.8409              1262.9143              1281.5486
 Red. masses --      1.8382                 1.4906                 1.6874
 Frc consts  --      1.6595                 1.4007                 1.6328
 IR Inten    --      7.1174                 6.0725                 0.2913

                     40                     41                     42
                     A'                     A"                     A"
 Frequencies --   1301.8674              1306.2586              1323.4046
 Red. masses --      1.6643                 1.4555                 1.6348
 Frc consts  --      1.6620                 1.4633                 1.6869
 IR Inten    --      4.1494                 0.0595                 6.7085

                     43                     44                     45
                     A'                     A'                     A"
 Frequencies --   1325.0973              1346.0161              1357.2108
 Red. masses --      1.6845                 1.5000                 1.5410
 Frc consts  --      1.7427                 1.6012                 1.6724
 IR Inten    --      8.2841                 1.5154                 0.7868

                     46                     47                     48
                     A"                     A'                     A"
 Frequencies --   1378.5374              1387.3018              1393.6720
 Red. masses --      1.5960                 1.4571                 1.5416
 Frc consts  --      1.7870                 1.6523                 1.7642
 IR Inten    --      2.9873                 0.8437                 0.7773

                     49                     50                     51
                     A'                     A'                     A"
 Frequencies --   1395.1010              1403.1274              1509.5418
 Red. masses --      1.4962                 1.4556                 1.0860
 Frc consts  --      1.7157                 1.6885                 1.4580
 IR Inten    --      1.2277                 0.4991                 0.0005

                     52                     53                     54
                     A'                     A"                     A'
 Frequencies --   1514.9977              1522.3312              1526.0875
 Red. masses --      1.0886                 1.0907                 1.0943
 Frc consts  --      1.4722                 1.4893                 1.5016
 IR Inten    --      5.1436                13.4921                 7.0331

                     55                     56                     57
                     A'                     A'                     A'
 Frequencies --   1544.9293              1825.5998              3039.5544
 Red. masses --      1.0930                11.3120                 1.0641
 Frc consts  --      1.5370                22.2127                 5.7923
 IR Inten    --      0.8077               221.0945                 9.9971

                     58                     59                     60
                     A"                     A'                     A"
 Frequencies --   3039.5860              3053.2865              3058.7042
 Red. masses --      1.0598                 1.0675                 1.0597
 Frc consts  --      5.7689                 5.8632                 5.8410
 IR Inten    --     34.2080                 9.3979                18.4898

                     61                     62                     63
                     A'                     A'                     A"
 Frequencies --   3061.3842              3066.5227              3078.5499
 Red. masses --      1.0661                 1.0697                 1.1054
 Frc consts  --      5.8868                 5.9266                 6.1725
 IR Inten    --     44.4134                40.5605                 8.1149

                     64                     65                     66
                     A'                     A"                     A'
 Frequencies --   3082.4852              3096.7640              3098.4693
 Red. masses --      1.1040                 1.0865                 1.0868
 Frc consts  --      6.1806                 6.1388                 6.1476
 IR Inten    --     47.2036                35.1766                14.5307

                     67                     68                     69
                     A"                     A"                     A'
 Frequencies --   3099.1549              3103.9219              3106.2080
 Red. masses --      1.1061                 1.1063                 1.1058
 Frc consts  --      6.2593                 6.2801                 6.2865
 IR Inten    --     10.3664                21.1744                27.3074

 - Thermochemistry -
 -------------------
 Temperature   298.150 Kelvin.  Pressure   1.00000 Atm.
 Atom     1 has atomic number  8 and mass  15.99491

 Molecular mass:   184.06549 amu.
 Principal axes and moments of inertia in atomic units:
                           1         2         3
     Eigenvalues --  1285.524162530.863902738.84443
           X           -0.22800   0.97366   0.00000
           Y            0.97366   0.22800   0.00000
           Z           -0.00000  -0.00000   1.00000
 This molecule is an asymmetric top.
 Rotational symmetry number  1.
 Warning -- assumption of classical behavior for rotation
           may cause significant error
 Rotational temperatures (Kelvin)      0.06738     0.03422     0.03162
 Rotational constants (GHZ):           1.40390     0.71309     0.65894
 Zero-point vibrational energy     566100.2 (Joules/Mol)
                                  135.30120 (Kcal/Mol)
 Warning -- explicit consideration of  13 degrees of freedom as
           vibrations may cause significant error
 Vibrational temperatures:    135.14   292.62   336.51   398.51   459.22
          (Kelvin)            488.26   532.33   568.78   581.16   641.19
                              650.00   675.97   879.79   910.30   969.59
                             1034.36  1133.28  1149.05  1197.82  1231.08
                             1299.14  1304.11  1311.88  1363.17  1385.98
                             1425.63  1474.90  1497.96  1508.87  1537.30
                             1550.18  1573.26  1615.29  1633.59  1667.37
                             1737.85  1780.98  1817.05  1843.86  1873.10
                             1879.41  1904.08  1906.52  1936.62  1952.72
                             1983.41  1996.02  2005.18  2007.24  2018.79
                             2171.89  2179.74  2190.30  2195.70  2222.81
                             2626.63  4373.24  4373.29  4393.00  4400.79
                             4404.65  4412.04  4429.35  4435.01  4455.55
                             4458.01  4458.99  4465.85  4469.14

 Zero-point correction=                           0.215616 (Hartree/Particle)
 Thermal correction to Energy=                    0.224738
 Thermal correction to Enthalpy=                  0.225682
 Thermal correction to Gibbs Free Energy=         0.181472
 Sum of electronic and zero-point Energies=           -924.121676
 Sum of electronic and thermal Energies=              -924.112554
 Sum of electronic and thermal Enthalpies=            -924.111610
 Sum of electronic and thermal Free Energies=         -924.155820

                     E (Thermal)             CV                S
                      KCal/Mol        Cal/Mol-Kelvin    Cal/Mol-Kelvin
 Total                  141.025             38.942             93.049
 Electronic               0.000              0.000              0.000
 Translational            0.889              2.981             41.537
 Rotational               0.889              2.981             30.567
 Vibrational            139.248             32.981             20.945
 Vibration     1          0.603              1.954              3.577
 Vibration     2          0.639              1.835              2.102
 Vibration     3          0.654              1.789              1.849
 Vibration     4          0.678              1.716              1.552
 Vibration     5          0.705              1.637              1.314
 Vibration     6          0.719              1.597              1.215
 Vibration     7          0.742              1.534              1.080
 Vibration     8          0.762              1.480              0.980
 Vibration     9          0.769              1.462              0.948
 Vibration    10          0.805              1.370              0.809
 Vibration    11          0.810              1.357              0.790
 Vibration    12          0.827              1.317              0.738
 Vibration    13          0.971              1.008              0.430

 Normal termination of Gaussian 16 at Sat Feb 24 02:49:04 2024.
