 Gaussian 16, Revision A.03,
 Gaussian 16:  EM64M-G16RevA.03 25-Dec-2016

 ---------------------
 # freq b3lyp/6-31g(d)
 ---------------------

 ---------
 good luck
 ---------
 Symbolic Z-matrix:
 Charge =  0 Multiplicity = 1

                         Standard orientation:
 ---------------------------------------------------------------------
 Center     Atomic      Atomic             Coordinates (Angstroms)
 Number     Number       Type             X           Y           Z
 ---------------------------------------------------------------------
      1          8           0       -2.886322   -0.779514    0.921709
      2          6           0       -1.802596   -0.495071    0.460955
      3          6           0       -1.579848    0.349563   -0.809288
      4          6           0       -1.976485    1.813029   -0.542596
      5          6           0       -0.105717    0.162746   -1.127628
      6          6           0        0.400078   -1.250549   -1.292237
      7          6           0        0.609784   -0.540102    0.027447
      8          6           0        1.995464   -0.124511    0.539297
      9          6           0        1.944510    1.247561    1.236777
     10          6           0        3.091147   -0.123018   -0.537537
     11          6           0       -0.449274   -0.886878    1.070764
     12          1           0       -2.230938   -0.049196   -1.598768
     13          1           0       -1.858391    2.415550   -1.450191
     14          1           0       -3.021090    1.871054   -0.221471
     15          1           0       -1.350958    2.258718    0.239947
     16          1           0        0.401472    0.947470   -1.684859
     17          1           0        1.254033   -1.399885   -1.944882
     18          1           0       -0.325867   -2.062599   -1.334508
     19          1           0        2.288772   -0.870589    1.294077
     20          1           0        2.914925    1.493296    1.683212
     21          1           0        1.695870    2.038734    0.518843
     22          1           0        1.198281    1.279194    2.038338
     23          1           0        4.042210    0.208972   -0.106262
     24          1           0        2.850925    0.562356   -1.360561
     25          1           0        3.250511   -1.119982   -0.960656
     26          1           0       -0.461342   -1.944180    1.361931
     27          1           0       -0.320216   -0.309426    1.996408
 ---------------------------------------------------------------------

 SCF Done:  E(RB3LYP) =  -465.900578044     A.U. after   13 cycles

 The electronic state is 1-A.
 Alpha  occ. eigenvalues --  -19.13618 -10.26974 -10.20176 -10.19799 -10.19587
 Alpha  occ. eigenvalues --  -10.19313 -10.19051 -10.18786 -10.18401 -10.17945
 Alpha  occ. eigenvalues --  -10.17811  -1.03582  -0.88891  -0.79457  -0.76394
 Alpha  occ. eigenvalues --   -0.73652  -0.68538  -0.65521  -0.61407  -0.58712
 Alpha  occ. eigenvalues --   -0.54329  -0.51924  -0.49468  -0.46826  -0.45202
 Alpha  occ. eigenvalues --   -0.44177  -0.42703  -0.42530  -0.41266  -0.40489
 Alpha  occ. eigenvalues --   -0.39311  -0.38941  -0.38339  -0.36752  -0.35483
 Alpha  occ. eigenvalues --   -0.34904  -0.34167  -0.33584  -0.33081  -0.28155
 Alpha  occ. eigenvalues --   -0.26719  -0.23596
 Alpha virt. eigenvalues --   -0.01687   0.07467   0.09946   0.10324   0.11596
 Alpha virt. eigenvalues --    0.12253   0.12832   0.14055   0.15053   0.15387
 Alpha virt. eigenvalues --    0.16075   0.16928   0.17596   0.17967   0.19197

 Mulliken charges:
               1
     1  O   -0.452492
     2  C    0.425554
     3  C   -0.140916
     4  C   -0.457901
     5  C   -0.149873
     6  C   -0.350454
     7  C    0.116669
     8  C   -0.097719
     9  C   -0.449170
    10  C   -0.461517
    11  C   -0.384192
    12  H    0.156173
    13  H    0.151182
    14  H    0.168766
    15  H    0.148259
    16  H    0.135545
    17  H    0.154095
    18  H    0.148053
    19  H    0.128282
    20  H    0.143324
    21  H    0.144091
    22  H    0.142649
    23  H    0.145647
    24  H    0.143158
    25  H    0.149335
    26  H    0.171901
    27  H    0.171551
 Sum of Mulliken charges =  -0.00000

 Dipole moment (field-independent basis, Debye):
    X=              2.6733    Y=              0.8047    Z=             -0.9299  Tot=              2.9426
 Quadrupole moment (field-independent basis, Debye-Ang):
   XX=            -76.6187   YY=            -67.3806   ZZ=            -67.7746
   XY=             -3.3521   XZ=              4.2274   YZ=              0.5683

  Exact polarizability: 113.019  -0.593  92.983   0.184  -0.856  92.990
 Approx polarizability: 149.805   2.399 135.569  -1.947  -4.032 139.256

                      1                      2                      3
                      A                      A                      A
 Frequencies --     51.9334                71.4169                97.6580
 Red. masses --      3.5561                 2.8051                 3.0832
 Frc consts  --      0.0057                 0.0084                 0.0173
 IR Inten    --      2.5681                 1.2498                 0.3146

                      4                      5                      6
                      A                      A                      A
 Frequencies --    203.3102               221.4534               227.5465
 Red. masses --      2.1775                 2.0414                 1.1200
 Frc consts  --      0.0530                 0.0590                 0.0342
 IR Inten    --      0.4348                 1.3769                 0.0106

                      7                      8                      9
                      A                      A                      A
 Frequencies --    242.7522               269.6176               275.1342
 Red. masses --      1.3009                 2.2413                 1.3786
 Frc consts  --      0.0452                 0.0960                 0.0615
 IR Inten    --      1.2186                 0.2528                 0.2403

                     10                     11                     12
                      A                      A                      A
 Frequencies --    334.5069               349.5561               414.3627
 Red. masses --      2.2103                 2.4719                 2.5177
 Frc consts  --      0.1457                 0.1780                 0.2547
 IR Inten    --      0.0236                 0.4294                 1.2978

                     13                     14                     15
                      A                      A                      A
 Frequencies --    443.1794               463.1220               501.2509
 Red. masses --      2.7064                 3.8414                 2.6012
 Frc consts  --      0.3132                 0.4854                 0.3851
 IR Inten    --      1.2479                 4.2000                 2.6880

                     16                     17                     18
                      A                      A                      A
 Frequencies --    557.7528               597.5200               627.9663
 Red. masses --      2.3827                 2.7483                 4.4834
 Frc consts  --      0.4367                 0.5781                 1.0417
 IR Inten    --      1.2730                 2.2612                 1.6223

                     19                     20                     21
                      A                      A                      A
 Frequencies --    723.0492               750.0129               823.2378
 Red. masses --      4.0468                 2.6790                 1.7106
 Frc consts  --      1.2465                 0.8879                 0.6830
 IR Inten    --      3.4352                 1.9523                 7.2769

                     22                     23                     24
                      A                      A                      A
 Frequencies --    868.9740               878.6827               926.6065
 Red. masses --      2.7077                 2.3034                 1.6541
 Frc consts  --      1.2047                 1.0478                 0.8367
 IR Inten    --      4.2533                 1.3761                 3.4229

                     25                     26                     27
                      A                      A                      A
 Frequencies --    939.8903               954.8155               967.5471
 Red. masses --      1.2663                 1.5412                 1.3529
 Frc consts  --      0.6591                 0.8278                 0.7462
 IR Inten    --      4.3071                 1.3431                 5.9351

                     28                     29                     30
                      A                      A                      A
 Frequencies --    972.6814              1010.4263              1052.8178
 Red. masses --      1.4741                 2.4953                 1.8475
 Frc consts  --      0.8217                 1.5010                 1.2065
 IR Inten    --      0.1000                 1.6908                 9.0986

                     31                     32                     33
                      A                      A                      A
 Frequencies --   1068.5007              1078.8836              1083.0468
 Red. masses --      1.4840                 1.5783                 1.6889
 Frc consts  --      0.9982                 1.0824                 1.1672
 IR Inten    --      7.3995                11.4701                 6.2038

                     34                     35                     36
                      A                      A                      A
 Frequencies --   1123.9515              1140.0088              1146.7065
 Red. masses --      2.1764                 2.0891                 1.6546
 Frc consts  --      1.6199                 1.5997                 1.2819
 IR Inten    --     13.2019                10.2884                 5.0150

                     37                     38                     39
                      A                      A                      A
 Frequencies --   1181.0104              1187.6028              1207.0007
 Red. masses --      1.9241                 1.8608                 1.5562
 Frc consts  --      1.5812                 1.5463                 1.3357
 IR Inten    --     11.7367                16.2758                 8.8813

                     40                     41                     42
                      A                      A                      A
 Frequencies --   1233.9046              1294.2245              1296.0370
 Red. masses --      1.6307                 1.8833                 2.0869
 Frc consts  --      1.4628                 1.8587                 2.0654
 IR Inten    --      0.3822                 1.7948                 1.1551

                     43                     44                     45
                      A                      A                      A
 Frequencies --   1312.5809              1344.3447              1362.3238
 Red. masses --      1.5496                 1.6337                 1.3415
 Frc consts  --      1.5730                 1.7396                 1.4670
 IR Inten    --     19.7323                 1.8368                 2.7164

                     46                     47                     48
                      A                      A                      A
 Frequencies --   1391.4755              1410.1432              1428.7808
 Red. masses --      1.5408                 2.0986                 1.2605
 Frc consts  --      1.7577                 2.4587                 1.5161
 IR Inten    --      4.4554                 0.5300                 2.8982

                     49                     50                     51
                      A                      A                      A
 Frequencies --   1431.3728              1448.7220              1482.2314
 Red. masses --      1.2634                 1.2357                 1.0920
 Frc consts  --      1.5251                 1.5281                 1.4136
 IR Inten    --      3.8111                 6.3778                 4.1151

                     52                     53                     54
                      A                      A                      A
 Frequencies --   1515.6483              1524.7002              1525.6235
 Red. masses --      1.1194                 1.1638                 1.0459
 Frc consts  --      1.5150                 1.5940                 1.4343
 IR Inten    --      2.1151                 1.1611                 3.2977

                     55                     56                     57
                      A                      A                      A
 Frequencies --   1528.2333              1529.8607              1536.7834
 Red. masses --      1.0513                 1.0525                 1.0549
 Frc consts  --      1.4467                 1.4514                 1.4678
 IR Inten    --      9.5770                 2.8091                 4.0367

                     58                     59                     60
                      A                      A                      A
 Frequencies --   1544.8782              1839.2084              3004.4079
 Red. masses --      1.0530                12.5155                 1.0834
 Frc consts  --      1.4806                24.9436                 5.7616
 IR Inten    --     10.1789               203.2258                25.7660

                     61                     62                     63
                      A                      A                      A
 Frequencies --   3042.3352              3044.7620              3046.3912
 Red. masses --      1.0381                 1.0788                 1.0473
 Frc consts  --      5.6610                 5.8923                 5.7268
 IR Inten    --     15.5254                17.7815                26.2225

                     64                     65                     66
                      A                      A                      A
 Frequencies --   3049.2112              3050.0550              3087.7360
 Red. masses --      1.0463                 1.0430                 1.0998
 Frc consts  --      5.7317                 5.7169                 6.1781
 IR Inten    --      4.9262                32.5924                12.7228

                     67                     68                     69
                      A                      A                      A
 Frequencies --   3104.9419              3111.9847              3114.2534
 Red. masses --      1.1009                 1.1009                 1.1021
 Frc consts  --      6.2530                 6.2815                 6.2978
 IR Inten    --      4.1755                77.3237                27.4322

                     70                     71                     72
                      A                      A                      A
 Frequencies --   3115.1332              3122.0687              3127.1445
 Red. masses --      1.1017                 1.0972                 1.0658
 Frc consts  --      6.2988                 6.3009                 6.1410
 IR Inten    --     31.4066                16.0583                30.1168

                     73                     74                     75
                      A                      A                      A
 Frequencies --   3133.7664              3163.6936              3223.4937
 Red. masses --      1.1025                 1.0898                 1.1094
 Frc consts  --      6.3792                 6.4264                 6.7918
 IR Inten    --     17.6468                15.1895                12.0184

 - Thermochemistry -
 -------------------
 Temperature   298.150 Kelvin.  Pressure   1.00000 Atm.
 Atom     1 has atomic number  8 and mass  15.99491

 Molecular mass:   152.12012 amu.
 Principal axes and moments of inertia in atomic units:
                           1         2         3
     Eigenvalues --   975.701592401.784402434.50504
           X            0.99976  -0.01936   0.01039
           Y            0.01563   0.95910   0.28263
           Z           -0.01543  -0.28240   0.95917
 This molecule is an asymmetric top.
 Rotational symmetry number  1.
 Warning -- assumption of classical behavior for rotation
           may cause significant error
 Rotational temperatures (Kelvin)      0.08877     0.03606     0.03558
 Rotational constants (GHZ):           1.84969     0.75142     0.74132
 Zero-point vibrational energy     631376.7 (Joules/Mol)
                                  150.90266 (Kcal/Mol)
 Warning -- explicit consideration of  17 degrees of freedom as
           vibrations may cause significant error
 Vibrational temperatures:     74.72   102.75   140.51   292.52   318.62
          (Kelvin)            327.39   349.27   387.92   395.86   481.28
                              502.93   596.18   637.64   666.33   721.19
                              802.48   859.70   903.50  1040.31  1079.10
                             1184.46  1250.26  1264.23  1333.18  1352.29
                             1373.77  1392.08  1399.47  1453.78  1514.77
                             1537.33  1552.27  1558.26  1617.12  1640.22
                             1649.85  1699.21  1708.70  1736.60  1775.31
                             1862.10  1864.71  1888.51  1934.21  1960.08
                             2002.02  2028.88  2055.70  2059.43  2084.39
                             2132.60  2180.68  2193.70  2195.03  2198.79
                             2201.13  2211.09  2222.74  2646.21  4322.67
                             4377.24  4380.73  4383.08  4387.13  4388.35
                             4442.56  4467.32  4477.45  4480.72  4481.98
                             4491.96  4499.26  4508.79  4551.85  4637.89

 Zero-point correction=                           0.240479 (Hartree/Particle)
 Thermal correction to Energy=                    0.251968
 Thermal correction to Enthalpy=                  0.252912
 Thermal correction to Gibbs Free Energy=         0.203562
 Sum of electronic and zero-point Energies=           -465.660099
 Sum of electronic and thermal Energies=              -465.648610
 Sum of electronic and thermal Enthalpies=            -465.647666
 Sum of electronic and thermal Free Energies=         -465.697016

                     E (Thermal)             CV                S
                      KCal/Mol        Cal/Mol-Kelvin    Cal/Mol-Kelvin
 Total                  158.112             44.520            103.866
 Electronic               0.000              0.000              0.000
 Translational            0.889              2.981             40.968
 Rotational               0.889              2.981             30.124
 Vibrational            156.335             38.558             32.774
 Vibration     1          0.596              1.977              4.742
 Vibration     2          0.598              1.968              4.114
 Vibration     3          0.603              1.951              3.501
 Vibration     4          0.639              1.835              2.103
 Vibration     5          0.648              1.808              1.947
 Vibration     6          0.651              1.799              1.898
 Vibration     7          0.659              1.775              1.783
 Vibration     8          0.674              1.729              1.599
 Vibration     9          0.677              1.719              1.564
 Vibration    10          0.716              1.607              1.238
 Vibration    11          0.727              1.576              1.168
 Vibration    12          0.778              1.439              0.911
 Vibration    13          0.803              1.376              0.817
 Vibration    14          0.821              1.332              0.757
 Vibration    15          0.857              1.247              0.655
 Vibration    16          0.913              1.123              0.528
 Vibration    17          0.955              1.037              0.454

 Normal termination of Gaussian 16 at Thu Feb 22 04:57:49 2024.
