 Gaussian 16, Revision A.03,
 Gaussian 16:  EM64M-G16RevA.03 25-Dec-2016

 ---------------------
 # freq b3lyp/6-31g(d)
 ---------------------

 ---------
 good luck
 ---------
 Symbolic Z-matrix:
 Charge =  0 Multiplicity = 1

                         Standard orientation:
 ---------------------------------------------------------------------
 Center     Atomic      Atomic             Coordinates (Angstroms)
 Number     Number       Type             X           Y           Z
 ---------------------------------------------------------------------
      1          8           0        2.497957   -1.454201   -0.884381
      2          6           0        1.596864   -0.804735   -0.401449
      3          6           0        1.788173    0.416788    0.520694
      4          6           0        2.358390    1.597690   -0.285989
      5          6           0        0.402948    0.676749    1.088186
      6          6           0       -0.275487   -0.462834    1.812074
      7          6           0       -0.637151   -0.182560    0.370794
      8          6           0       -2.029251    0.356955    0.051891
      9          6           0       -2.042081    1.272596   -1.182955
     10          6           0       -3.056922   -0.778545   -0.087394
     11          6           0        0.099672   -1.049930   -0.643669
     12          1           0        2.514676    0.142414    1.297126
     13          1           0        2.535060    2.460188    0.366301
     14          1           0        3.307056    1.315853   -0.753153
     15          1           0        1.665896    1.910631   -1.076606
     16          1           0        0.150219    1.692448    1.385747
     17          1           0       -1.010861   -0.207530    2.571354
     18          1           0        0.309550   -1.350666    2.050917
     19          1           0       -2.328774    0.970959    0.914608
     20          1           0       -1.800718    0.721181   -2.099968
     21          1           0       -3.034096    1.716796   -1.324888
     22          1           0       -1.318319    2.089506   -1.080991
     23          1           0       -4.066895   -0.378326   -0.234704
     24          1           0       -3.070164   -1.412956    0.806149
     25          1           0       -2.826736   -1.418023   -0.948707
     26          1           0       -0.117593   -2.122041   -0.574040
     27          1           0       -0.122899   -0.749860   -1.677194
 ---------------------------------------------------------------------

 SCF Done:  E(RB3LYP) =  -465.903413035     A.U. after   13 cycles

 The electronic state is 1-A.
 Alpha  occ. eigenvalues --  -19.13690 -10.27053 -10.20059 -10.19658 -10.19652
 Alpha  occ. eigenvalues --  -10.19365 -10.19125 -10.18872 -10.18464 -10.17796
 Alpha  occ. eigenvalues --  -10.17632  -1.03661  -0.88987  -0.79462  -0.76459
 Alpha  occ. eigenvalues --   -0.73542  -0.68554  -0.65442  -0.61232  -0.58570
 Alpha  occ. eigenvalues --   -0.54312  -0.53046  -0.48464  -0.47038  -0.44959
 Alpha  occ. eigenvalues --   -0.44374  -0.42463  -0.41769  -0.41110  -0.40732
 Alpha  occ. eigenvalues --   -0.40116  -0.39298  -0.38359  -0.36762  -0.35207
 Alpha  occ. eigenvalues --   -0.34879  -0.34330  -0.33787  -0.32646  -0.28101
 Alpha  occ. eigenvalues --   -0.26809  -0.23695
 Alpha virt. eigenvalues --   -0.01725   0.07399   0.10093   0.10367   0.11375
 Alpha virt. eigenvalues --    0.12085   0.12723   0.14248   0.14523   0.15728
 Alpha virt. eigenvalues --    0.16138   0.17021   0.17441   0.18161   0.18396

 Mulliken charges:
               1
     1  O   -0.451433
     2  C    0.422133
     3  C   -0.140868
     4  C   -0.458045
     5  C   -0.154468
     6  C   -0.347679
     7  C    0.122312
     8  C   -0.099263
     9  C   -0.451680
    10  C   -0.446558
    11  C   -0.382247
    12  H    0.156751
    13  H    0.151835
    14  H    0.169116
    15  H    0.148003
    16  H    0.134466
    17  H    0.150567
    18  H    0.149126
    19  H    0.118258
    20  H    0.141801
    21  H    0.144551
    22  H    0.144989
    23  H    0.141865
    24  H    0.146711
    25  H    0.144260
    26  H    0.173362
    27  H    0.172135
 Sum of Mulliken charges =  -0.00000

 Dipole moment (field-independent basis, Debye):
    X=             -2.1559    Y=              1.6590    Z=              0.9901  Tot=              2.8949
 Quadrupole moment (field-independent basis, Debye-Ang):
   XX=            -73.6615   YY=            -69.5475   ZZ=            -68.0355
   XY=              5.0780   XZ=              3.1359   YZ=             -1.6498

  Exact polarizability: 113.504   1.000  94.999  -0.323   1.007  91.576
 Approx polarizability: 147.909  -4.464 139.871  -2.539   5.664 136.735

                      1                      2                      3
                      A                      A                      A
 Frequencies --     52.7116                72.9860                97.4539
 Red. masses --      3.2407                 3.0210                 2.9094
 Frc consts  --      0.0053                 0.0095                 0.0163
 IR Inten    --      1.8214                 1.9942                 0.1593

                      4                      5                      6
                      A                      A                      A
 Frequencies --    186.7438               218.1452               226.7193
 Red. masses --      2.8373                 2.1130                 1.2047
 Frc consts  --      0.0583                 0.0592                 0.0365
 IR Inten    --      0.4752                 1.3538                 0.0502

                      7                      8                      9
                      A                      A                      A
 Frequencies --    242.1505               255.0520               257.0041
 Red. masses --      1.2873                 1.7200                 1.1602
 Frc consts  --      0.0445                 0.0659                 0.0452
 IR Inten    --      1.0502                 0.0525                 0.0638

                     10                     11                     12
                      A                      A                      A
 Frequencies --    301.5377               334.0331               421.9696
 Red. masses --      2.5800                 2.2479                 2.8279
 Frc consts  --      0.1382                 0.1478                 0.2967
 IR Inten    --      0.3617                 0.3690                 1.1676

                     13                     14                     15
                      A                      A                      A
 Frequencies --    442.1774               471.5636               488.3240
 Red. masses --      2.9959                 3.5170                 2.5403
 Frc consts  --      0.3451                 0.4608                 0.3569
 IR Inten    --      2.9549                 4.4626                 1.2736

                     16                     17                     18
                      A                      A                      A
 Frequencies --    536.3879               607.6800               641.6005
 Red. masses --      2.7805                 3.2160                 3.3866
 Frc consts  --      0.4713                 0.6997                 0.8214
 IR Inten    --      0.7256                 1.7701                 3.4761

                     19                     20                     21
                      A                      A                      A
 Frequencies --    726.7436               753.5483               824.7214
 Red. masses --      3.8911                 2.5115                 1.6345
 Frc consts  --      1.2108                 0.8403                 0.6550
 IR Inten    --      5.1535                 1.5660                 6.8995

                     22                     23                     24
                      A                      A                      A
 Frequencies --    871.7987               881.7291               932.1989
 Red. masses --      2.6902                 2.3273                 1.4389
 Frc consts  --      1.2047                 1.0661                 0.7367
 IR Inten    --      3.6254                 2.6590                 3.4158

                     25                     26                     27
                      A                      A                      A
 Frequencies --    942.3267               958.6271               965.4178
 Red. masses --      1.4045                 1.6407                 1.3119
 Frc consts  --      0.7348                 0.8883                 0.7204
 IR Inten    --      2.4231                 2.4631                 4.5820

                     28                     29                     30
                      A                      A                      A
 Frequencies --    976.6550              1009.9806              1047.9038
 Red. masses --      1.6042                 3.0289                 1.5796
 Frc consts  --      0.9015                 1.8204                 1.0220
 IR Inten    --      1.7447                 1.0739                 8.4106

                     31                     32                     33
                      A                      A                      A
 Frequencies --   1063.2753              1078.3306              1083.6322
 Red. masses --      1.4146                 1.6408                 1.7726
 Frc consts  --      0.9423                 1.1241                 1.2264
 IR Inten    --      9.6474                13.2389                 1.6697

                     34                     35                     36
                      A                      A                      A
 Frequencies --   1103.7211              1139.5003              1148.6589
 Red. masses --      1.6733                 2.0446                 2.0764
 Frc consts  --      1.2010                 1.5642                 1.6142
 IR Inten    --      7.6413                13.9705                 7.7465

                     37                     38                     39
                      A                      A                      A
 Frequencies --   1181.2119              1193.6935              1207.2582
 Red. masses --      1.9033                 1.8687                 1.6049
 Frc consts  --      1.5647                 1.5688                 1.3781
 IR Inten    --     19.6100                14.9012                 5.3318

                     40                     41                     42
                      A                      A                      A
 Frequencies --   1248.6298              1279.3037              1295.0294
 Red. masses --      1.6214                 1.8082                 1.7083
 Frc consts  --      1.4894                 1.7436                 1.6880
 IR Inten    --      1.2521                19.6341                 0.8754

                     43                     44                     45
                      A                      A                      A
 Frequencies --   1327.7026              1346.0339              1363.0526
 Red. masses --      1.6737                 1.9415                 1.3670
 Frc consts  --      1.7383                 2.0726                 1.4964
 IR Inten    --      4.1016                 1.7037                 1.9469

                     46                     47                     48
                      A                      A                      A
 Frequencies --   1386.5477              1419.8867              1427.2810
 Red. masses --      1.5746                 1.7939                 1.2669
 Frc consts  --      1.7836                 2.1308                 1.5206
 IR Inten    --      6.1059                 1.1301                 6.6283

                     49                     50                     51
                      A                      A                      A
 Frequencies --   1431.7946              1447.0656              1483.1854
 Red. masses --      1.3346                 1.2351                 1.0983
 Frc consts  --      1.6120                 1.5238                 1.4236
 IR Inten    --      1.6297                 4.1268                 3.8907

                     52                     53                     54
                      A                      A                      A
 Frequencies --   1517.2773              1518.0141              1525.0149
 Red. masses --      1.0440                 1.2484                 1.0567
 Frc consts  --      1.4160                 1.6949                 1.4480
 IR Inten    --      0.4847                 3.3232                 2.1192

                     55                     56                     57
                      A                      A                      A
 Frequencies --   1527.6825              1529.3593              1534.8222
 Red. masses --      1.0466                 1.0517                 1.0448
 Frc consts  --      1.4392                 1.4494                 1.4501
 IR Inten    --      7.2659                 3.4597                 6.6667

                     58                     59                     60
                      A                      A                      A
 Frequencies --   1540.4896              1839.6951              3010.1197
 Red. masses --      1.0644                12.5200                 1.0838
 Frc consts  --      1.4882                24.9659                 5.7857
 IR Inten    --      5.4394               207.8782                20.8696

                     61                     62                     63
                      A                      A                      A
 Frequencies --   3040.4529              3043.3725              3045.7687
 Red. masses --      1.0360                 1.0480                 1.0712
 Frc consts  --      5.6426                 5.7191                 5.8550
 IR Inten    --     26.3983                 3.7531                22.0118

                     64                     65                     66
                      A                      A                      A
 Frequencies --   3048.4413              3049.5419              3091.9813
 Red. masses --      1.0555                 1.0418                 1.0980
 Frc consts  --      5.7789                 5.7084                 6.1851
 IR Inten    --     14.3583                31.4305                12.3628

                     67                     68                     69
                      A                      A                      A
 Frequencies --   3103.8301              3109.4375              3112.5901
 Red. masses --      1.1018                 1.1010                 1.1026
 Frc consts  --      6.2541                 6.2717                 6.2941
 IR Inten    --      2.0840                65.4276                38.1715

                     70                     71                     72
                      A                      A                      A
 Frequencies --   3114.2459              3114.9813              3122.4660
 Red. masses --      1.1025                 1.1023                 1.0564
 Frc consts  --      6.2997                 6.3019                 6.0686
 IR Inten    --     32.2469                31.1005                16.5479

                     73                     74                     75
                      A                      A                      A
 Frequencies --   3134.0195              3161.0263              3204.4607
 Red. masses --      1.1025                 1.0907                 1.1147
 Frc consts  --      6.3802                 6.4209                 6.7443
 IR Inten    --     17.2117                14.2657                15.0060

 - Thermochemistry -
 -------------------
 Temperature   298.150 Kelvin.  Pressure   1.00000 Atm.
 Atom     1 has atomic number  8 and mass  15.99491

 Molecular mass:   152.12012 amu.
 Principal axes and moments of inertia in atomic units:
                           1         2         3
     Eigenvalues --  1011.457642361.026512484.09757
           X            0.99932   0.03518   0.01145
           Y           -0.03309   0.98833  -0.14871
           Z           -0.01655   0.14823   0.98881
 This molecule is an asymmetric top.
 Rotational symmetry number  1.
 Warning -- assumption of classical behavior for rotation
           may cause significant error
 Rotational temperatures (Kelvin)      0.08563     0.03668     0.03487
 Rotational constants (GHZ):           1.78430     0.76439     0.72652
 Zero-point vibrational energy     630669.9 (Joules/Mol)
                                  150.73373 (Kcal/Mol)
 Warning -- explicit consideration of  17 degrees of freedom as
           vibrations may cause significant error
 Vibrational temperatures:     75.84   105.01   140.21   268.68   313.86
          (Kelvin)            326.20   348.40   366.96   369.77   433.85
                              480.60   607.12   636.19   678.47   702.59
                              771.74   874.32   923.12  1045.62  1084.19
                             1186.59  1254.32  1268.61  1341.23  1355.80
                             1379.25  1389.02  1405.19  1453.14  1507.70
                             1529.82  1551.48  1559.11  1588.01  1639.49
                             1652.66  1699.50  1717.46  1736.98  1796.50
                             1840.63  1863.26  1910.27  1936.64  1961.13
                             1994.93  2042.90  2053.54  2060.03  2082.00
                             2133.97  2183.02  2184.08  2194.16  2197.99
                             2200.41  2208.27  2216.42  2646.91  4330.89
                             4374.53  4378.73  4382.18  4386.03  4387.61
                             4448.67  4465.72  4473.79  4478.32  4480.71
                             4481.76  4492.53  4509.16  4548.01  4610.50

 Zero-point correction=                           0.240209 (Hartree/Particle)
 Thermal correction to Energy=                    0.251822
 Thermal correction to Enthalpy=                  0.252766
 Thermal correction to Gibbs Free Energy=         0.203130
 Sum of electronic and zero-point Energies=           -465.663204
 Sum of electronic and thermal Energies=              -465.651591
 Sum of electronic and thermal Enthalpies=            -465.650647
 Sum of electronic and thermal Free Energies=         -465.700283

                     E (Thermal)             CV                S
                      KCal/Mol        Cal/Mol-Kelvin    Cal/Mol-Kelvin
 Total                  158.021             44.669            104.469
 Electronic               0.000              0.000              0.000
 Translational            0.889              2.981             40.968
 Rotational               0.889              2.981             30.163
 Vibrational            156.243             38.707             33.338
 Vibration     1          0.596              1.977              4.713
 Vibration     2          0.599              1.967              4.071
 Vibration     3          0.603              1.951              3.505
 Vibration     4          0.632              1.858              2.260
 Vibration     5          0.646              1.813              1.974
 Vibration     6          0.650              1.800              1.905
 Vibration     7          0.658              1.776              1.787
 Vibration     8          0.665              1.754              1.695
 Vibration     9          0.667              1.751              1.682
 Vibration    10          0.694              1.671              1.408
 Vibration    11          0.716              1.608              1.241
 Vibration    12          0.784              1.422              0.885
 Vibration    13          0.802              1.378              0.820
 Vibration    14          0.829              1.313              0.733
 Vibration    15          0.844              1.276              0.688
 Vibration    16          0.891              1.170              0.573
 Vibration    17          0.966              1.016              0.437

 Normal termination of Gaussian 16 at Thu Feb 22 05:46:00 2024.
