 Gaussian 16, Revision A.03,
 Gaussian 16:  EM64M-G16RevA.03 25-Dec-2016

 ---------------------
 # freq b3lyp/6-31g(d)
 ---------------------

 ---------
 good luck
 ---------
 Symbolic Z-matrix:
 Charge =  0 Multiplicity = 1

                         Standard orientation:
 ---------------------------------------------------------------------
 Center     Atomic      Atomic             Coordinates (Angstroms)
 Number     Number       Type             X           Y           Z
 ---------------------------------------------------------------------
      1          8           0       -0.871113    2.231401   -0.043776
      2          6           0       -0.765997    1.026028    0.020499
      3          6           0        0.014009    0.211058    1.050916
      4          6           0       -0.839887   -1.075813    1.117680
      5          6           0        1.298579   -0.323602    0.331894
      6          6           0        2.214539    0.744268   -0.268799
      7          6           0        0.712030   -1.351438   -0.697135
      8          6           0       -0.809520   -1.332401   -0.410118
      9          6           0       -1.385866   -0.003785   -0.943755
     10          1           0        0.212165    0.757920    1.974790
     11          1           0       -0.361446   -1.870879    1.700512
     12          1           0       -1.850603   -0.912341    1.509846
     13          1           0        1.867509   -0.872114    1.093875
     14          1           0        1.705670    1.331336   -1.041674
     15          1           0        2.563620    1.444741    0.498736
     16          1           0        3.096814    0.281475   -0.726450
     17          1           0        1.132511   -2.350838   -0.540456
     18          1           0        0.933599   -1.065867   -1.732489
     19          1           0       -1.344263   -2.221122   -0.755912
     20          1           0       -1.134235    0.226217   -1.985029
     21          1           0       -2.479760    0.034378   -0.852632
 ---------------------------------------------------------------------

 SCF Done:  E(RB3LYP) =  -387.296306485     A.U. after   13 cycles

 The electronic state is 1-A.
 Alpha  occ. eigenvalues --  -19.13303 -10.26667 -10.20040 -10.19809 -10.19231
 Alpha  occ. eigenvalues --  -10.19165 -10.18903 -10.18673 -10.17644  -1.03202
 Alpha  occ. eigenvalues --   -0.87817  -0.76756  -0.72465  -0.70609  -0.65769
 Alpha  occ. eigenvalues --   -0.58197  -0.56190  -0.52403  -0.48850  -0.46857
 Alpha  occ. eigenvalues --   -0.46019  -0.42596  -0.41424  -0.40289  -0.39639
 Alpha  occ. eigenvalues --   -0.38106  -0.36180  -0.35878  -0.35599  -0.34188
 Alpha  occ. eigenvalues --   -0.32076  -0.31739  -0.31057  -0.23052
 Alpha virt. eigenvalues --   -0.01065   0.07688   0.11115   0.11614   0.14050
 Alpha virt. eigenvalues --    0.14402   0.15046   0.15464   0.16180   0.17198
 Alpha virt. eigenvalues --    0.17609   0.18536   0.18793   0.19483   0.20849

 Mulliken charges:
               1
     1  O   -0.462174
     2  C    0.461288
     3  C   -0.172566
     4  C   -0.287355
     5  C   -0.085245
     6  C   -0.455851
     7  C   -0.279938
     8  C   -0.116274
     9  C   -0.351998
    10  H    0.136738
    11  H    0.141565
    12  H    0.143812
    13  H    0.136613
    14  H    0.156418
    15  H    0.151204
    16  H    0.144833
    17  H    0.140155
    18  H    0.139335
    19  H    0.126558
    20  H    0.164440
    21  H    0.168445
 Sum of Mulliken charges =  -0.00000

 Dipole moment (field-independent basis, Debye):
    X=              0.5046    Y=             -2.9922    Z=              0.1295  Tot=              3.0372
 Quadrupole moment (field-independent basis, Debye-Ang):
   XX=            -53.1569   YY=            -62.2968   ZZ=            -53.1243
   XY=              2.6543   XZ=              0.3368   YZ=              0.0611

  Exact polarizability:  80.379   0.152  81.913   1.467  -0.135  72.657
 Approx polarizability: 108.371  -3.120 124.422   2.570  -1.364 106.903

                      1                      2                      3
                      A                      A                      A
 Frequencies --    105.1159               136.0615               232.3561
 Red. masses --      3.1440                 3.7565                 1.0458
 Frc consts  --      0.0205                 0.0410                 0.0333
 IR Inten    --      2.8721                 1.8549                 0.0751

                      4                      5                      6
                      A                      A                      A
 Frequencies --    307.1302               382.3273               411.7796
 Red. masses --      2.4053                 1.8565                 2.0451
 Frc consts  --      0.1337                 0.1599                 0.2043
 IR Inten    --      0.4848                 0.3147                 0.8645

                      7                      8                      9
                      A                      A                      A
 Frequencies --    426.0783               480.4919               509.0308
 Red. masses --      3.5706                 3.1448                 3.7786
 Frc consts  --      0.3819                 0.4278                 0.5769
 IR Inten    --      2.1902                 4.8072                 3.0632

                     10                     11                     12
                      A                      A                      A
 Frequencies --    600.4352               652.6466               766.6518
 Red. masses --      2.6079                 4.0820                 4.3256
 Frc consts  --      0.5540                 1.0244                 1.4979
 IR Inten    --      2.6192                 1.0249                 4.1158

                     13                     14                     15
                      A                      A                      A
 Frequencies --    793.3891               806.2536               858.2711
 Red. masses --      2.5120                 3.1025                 2.5925
 Frc consts  --      0.9316                 1.1882                 1.1252
 IR Inten    --      0.4091                 0.8290                 2.8441

                     16                     17                     18
                      A                      A                      A
 Frequencies --    904.0437               921.0565               929.3484
 Red. masses --      1.6152                 2.6350                 2.0700
 Frc consts  --      0.7778                 1.3170                 1.0533
 IR Inten    --      1.7245                 5.0800                 4.1748

                     19                     20                     21
                      A                      A                      A
 Frequencies --    958.7055               966.9438               996.0776
 Red. masses --      1.7422                 2.1400                 1.4511
 Frc consts  --      0.9434                 1.1789                 0.8483
 IR Inten    --      0.5581                 0.9714                 0.6509

                     22                     23                     24
                      A                      A                      A
 Frequencies --   1022.2173              1051.5117              1097.2917
 Red. masses --      1.5872                 1.6963                 1.4229
 Frc consts  --      0.9772                 1.1051                 1.0094
 IR Inten    --      7.4622                 1.3912                 5.9988

                     25                     26                     27
                      A                      A                      A
 Frequencies --   1110.2675              1135.8905              1153.6603
 Red. masses --      1.8082                 1.2891                 1.2492
 Frc consts  --      1.3133                 0.9800                 0.9796
 IR Inten    --     14.4353                 4.5962                 4.0964

                     28                     29                     30
                      A                      A                      A
 Frequencies --   1169.9294              1200.1794              1236.2296
 Red. masses --      2.1788                 1.9447                 1.5792
 Frc consts  --      1.7571                 1.6504                 1.4220
 IR Inten    --     18.2658                 7.2276                 0.9001

                     31                     32                     33
                      A                      A                      A
 Frequencies --   1245.4993              1280.9761              1296.3425
 Red. masses --      1.3939                 1.5725                 1.5221
 Frc consts  --      1.2740                 1.5203                 1.5070
 IR Inten    --      1.7523                 2.1141                 1.4457

                     34                     35                     36
                      A                      A                      A
 Frequencies --   1316.5645              1341.6351              1353.0273
 Red. masses --      1.5765                 1.4798                 1.5182
 Frc consts  --      1.6100                 1.5693                 1.6375
 IR Inten    --      0.5591                 2.6692                 7.2426

                     37                     38                     39
                      A                      A                      A
 Frequencies --   1361.4915              1386.2269              1447.0254
 Red. masses --      1.5019                 1.4559                 1.2390
 Frc consts  --      1.6403                 1.6484                 1.5285
 IR Inten    --      1.3186                 2.7506                 3.1541

                     40                     41                     42
                      A                      A                      A
 Frequencies --   1480.5645              1523.0174              1527.5180
 Red. masses --      1.0908                 1.0676                 1.0642
 Frc consts  --      1.4087                 1.4591                 1.4630
 IR Inten    --      8.3257                 4.2886                 0.2333

                     43                     44                     45
                      A                      A                      A
 Frequencies --   1529.5724              1540.6225              1846.3083
 Red. masses --      1.0495                 1.0994                12.2334
 Frc consts  --      1.4467                 1.5375                24.5700
 IR Inten    --      6.7433                 0.9652               219.2349

                     46                     47                     48
                      A                      A                      A
 Frequencies --   3036.3493              3046.6786              3052.3530
 Red. masses --      1.0851                 1.0363                 1.0636
 Frc consts  --      5.8944                 5.6674                 5.8382
 IR Inten    --     16.3731                20.8849                13.9525

                     49                     50                     51
                      A                      A                      A
 Frequencies --   3057.1866              3063.0486              3096.5165
 Red. masses --      1.0601                 1.0594                 1.1051
 Frc consts  --      5.8378                 5.8562                 6.2432
 IR Inten    --     43.3935                20.4979                15.0713

                     52                     53                     54
                      A                      A                      A
 Frequencies --   3104.9536              3108.2114              3111.0567
 Red. masses --      1.0999                 1.1079                 1.0891
 Frc consts  --      6.2477                 6.3062                 6.2107
 IR Inten    --     15.8490                28.4022                54.3760

                     55                     56                     57
                      A                      A                      A
 Frequencies --   3111.7951              3117.9882              3136.0034
 Red. masses --      1.1025                 1.1019                 1.0890
 Frc consts  --      6.2898                 6.3118                 6.3100
 IR Inten    --     29.5313                34.1942                22.0353

 - Thermochemistry -
 -------------------
 Temperature   298.150 Kelvin.  Pressure   1.00000 Atm.
 Atom     1 has atomic number  8 and mass  15.99491

 Molecular mass:   124.08882 amu.
 Principal axes and moments of inertia in atomic units:
                           1         2         3
     Eigenvalues --   869.38909 916.492501287.23051
           X            0.76878   0.63949  -0.00538
           Y           -0.63951   0.76876  -0.00517
           Z            0.00083   0.00742   0.99997
 This molecule is an asymmetric top.
 Rotational symmetry number  1.
 Warning -- assumption of classical behavior for rotation
           may cause significant error
 Rotational temperatures (Kelvin)      0.09963     0.09451     0.06729
 Rotational constants (GHZ):           2.07587     1.96918     1.40203
 Zero-point vibrational energy     489511.3 (Joules/Mol)
                                  116.99602 (Kcal/Mol)
 Warning -- explicit consideration of  10 degrees of freedom as
           vibrations may cause significant error
 Vibrational temperatures:    151.24   195.76   334.31   441.89   550.08
          (Kelvin)            592.46   613.03   691.32   732.38   863.89
                              939.01  1103.04  1141.51  1160.02  1234.86
                             1300.72  1325.19  1337.13  1379.36  1391.22
                             1433.13  1470.74  1512.89  1578.76  1597.43
                             1634.29  1659.86  1683.27  1726.79  1778.66
                             1792.00  1843.04  1865.15  1894.24  1930.31
                             1946.70  1958.88  1994.47  2081.95  2130.20
                             2191.28  2197.76  2200.71  2216.61  2656.43
                             4368.63  4383.49  4391.66  4398.61  4407.04
                             4455.20  4467.34  4472.02  4476.12  4477.18
                             4486.09  4512.01

 Zero-point correction=                           0.186445 (Hartree/Particle)
 Thermal correction to Energy=                    0.194153
 Thermal correction to Enthalpy=                  0.195097
 Thermal correction to Gibbs Free Energy=         0.154463
 Sum of electronic and zero-point Energies=           -387.109861
 Sum of electronic and thermal Energies=              -387.102153
 Sum of electronic and thermal Enthalpies=            -387.101209
 Sum of electronic and thermal Free Energies=         -387.141843

                     E (Thermal)             CV                S
                      KCal/Mol        Cal/Mol-Kelvin    Cal/Mol-Kelvin
 Total                  121.833             31.239             85.521
 Electronic               0.000              0.000              0.000
 Translational            0.889              2.981             40.361
 Rotational               0.889              2.981             28.419
 Vibrational            120.055             25.278             16.741
 Vibration     1          0.605              1.945              3.357
 Vibration     2          0.614              1.917              2.859
 Vibration     3          0.653              1.791              1.861
 Vibration     4          0.697              1.660              1.378
 Vibration     5          0.752              1.508              1.030
 Vibration     6          0.776              1.445              0.920
 Vibration     7          0.788              1.413              0.872
 Vibration     8          0.837              1.293              0.709
 Vibration     9          0.864              1.230              0.636
 Vibration    10          0.959              1.031              0.449

 Optimization completed.
    -- Stationary point found.
 Normal termination of Gaussian 16 at Wed Feb 21 18:32:02 2024.
