 Gaussian 16, Revision A.03,
 Gaussian 16:  EM64M-G16RevA.03 25-Dec-2016

 ---------------------
 # freq b3lyp/6-31g(d)
 ---------------------

 ---------
 good luck
 ---------
 Symbolic Z-matrix:
 Charge =  0 Multiplicity = 1

                         Standard orientation:
 ---------------------------------------------------------------------
 Center     Atomic      Atomic             Coordinates (Angstroms)
 Number     Number       Type             X           Y           Z
 ---------------------------------------------------------------------
      1         14           0        0.268253    1.277560    0.081184
      2          6           0        0.332259    2.737321   -1.129025
      3          6           0        0.052040    1.976648    1.830420
      4          6           0       -1.222336    0.196970   -0.467202
      5          6           0       -1.460567   -1.259703    0.085451
      6          6           0       -1.360950   -1.326150    1.622274
      7          6           0       -0.499971   -2.286415   -0.530700
      8          6           0       -2.923219   -1.535559   -0.346907
      9          6           0       -3.640250   -0.189910   -0.310639
     10          8           0       -4.839558   -0.015898   -0.314873
     11          6           0       -2.579976    0.916745   -0.269394
     12          6           0        1.913621    0.341825   -0.024234
     13          6           0        2.602100   -0.083359    1.127023
     14          6           0        3.813073   -0.774061    1.041093
     15          6           0        4.369491   -1.054744   -0.207237
     16          6           0        3.710129   -0.638731   -1.365867
     17          6           0        2.500948    0.050722   -1.270906
     18          1           0        0.464185    2.408123   -2.166647
     19          1           0       -0.590353    3.328679   -1.087435
     20          1           0        1.166302    3.406615   -0.887676
     21          1           0       -0.858741    2.583111    1.899407
     22          1           0        0.895599    2.632192    2.078206
     23          1           0       -0.008831    1.205711    2.605236
     24          1           0       -1.083300    0.080608   -1.555015
     25          1           0       -2.017191   -0.598100    2.114209
     26          1           0       -1.649789   -2.321608    1.980679
     27          1           0       -0.335869   -1.140436    1.961062
     28          1           0       -0.547988   -2.263863   -1.626613
     29          1           0        0.536625   -2.097281   -0.236288
     30          1           0       -0.760913   -3.301960   -0.207320
     31          1           0       -3.448488   -2.282579    0.257562
     32          1           0       -2.951378   -1.888490   -1.389275
     33          1           0       -2.663444    1.412248    0.707890
     34          1           0       -2.800113    1.681278   -1.021867
     35          1           0        2.192614    0.129709    2.111869
     36          1           0        4.322500   -1.089493    1.948277
     37          1           0        5.312215   -1.591198   -0.277716
     38          1           0        4.139524   -0.849187   -2.342239
     39          1           0        2.009403    0.367667   -2.188797
 ---------------------------------------------------------------------

 SCF Done:  E(RB3LYP) =  -949.600142990     A.U. after   14 cycles

 The electronic state is 1-A.
 Alpha  occ. eigenvalues --  -66.12495 -19.13136 -10.26753 -10.20533 -10.19417
 Alpha  occ. eigenvalues --  -10.19369 -10.19350 -10.19230 -10.19217 -10.19040
 Alpha  occ. eigenvalues --  -10.18400 -10.18005 -10.17940 -10.17841 -10.17249
 Alpha  occ. eigenvalues --  -10.16649 -10.16431  -5.26889  -3.62786  -3.62768
 Alpha  occ. eigenvalues --   -3.62743  -1.03107  -0.85019  -0.84417  -0.75459
 Alpha  occ. eigenvalues --   -0.74482  -0.74473  -0.71213  -0.69646  -0.68819
 Alpha  occ. eigenvalues --   -0.67959  -0.63715  -0.60193  -0.59797  -0.54330
 Alpha  occ. eigenvalues --   -0.52991  -0.52028  -0.48283  -0.46746  -0.45417
 Alpha  occ. eigenvalues --   -0.44808  -0.44430  -0.43919  -0.43045  -0.42140
 Alpha  occ. eigenvalues --   -0.41667  -0.40962  -0.40625  -0.40176  -0.39531
 Alpha  occ. eigenvalues --   -0.39040  -0.38878  -0.37763  -0.37611  -0.36394
 Alpha  occ. eigenvalues --   -0.36320  -0.34640  -0.34352  -0.32969  -0.32641
 Alpha  occ. eigenvalues --   -0.32162  -0.30008  -0.29496  -0.29136  -0.25210
 Alpha  occ. eigenvalues --   -0.25045  -0.22793
 Alpha virt. eigenvalues --   -0.01531  -0.01108  -0.00403   0.05789   0.07882
 Alpha virt. eigenvalues --    0.08477   0.08906   0.10819   0.11401   0.11690
 Alpha virt. eigenvalues --    0.12620   0.12967   0.13359   0.13851   0.14326

 Mulliken charges:
               1
     1  Si   0.684259
     2  C   -0.665590
     3  C   -0.685445
     4  C   -0.301322
     5  C    0.089677
     6  C   -0.460386
     7  C   -0.462530
     8  C   -0.360479
     9  C    0.442990
    10  O   -0.450938
    11  C   -0.380410
    12  C   -0.041131
    13  C   -0.184003
    14  C   -0.119718
    15  C   -0.133767
    16  C   -0.121874
    17  C   -0.176844
    18  H    0.158950
    19  H    0.162227
    20  H    0.167284
    21  H    0.163136
    22  H    0.168688
    23  H    0.162327
    24  H    0.139742
    25  H    0.143922
    26  H    0.143508
    27  H    0.157421
    28  H    0.134049
    29  H    0.168094
    30  H    0.139071
    31  H    0.164299
    32  H    0.165244
    33  H    0.172105
    34  H    0.172893
    35  H    0.126347
    36  H    0.130016
    37  H    0.132020
    38  H    0.130121
    39  H    0.126047
 Sum of Mulliken charges =  -0.00000

 Dipole moment (field-independent basis, Debye):
    X=              3.2872    Y=             -0.3548    Z=              0.0475  Tot=              3.3066
 Quadrupole moment (field-independent basis, Debye-Ang):
   XX=           -130.2155   YY=           -108.8686   ZZ=           -104.9283
   XY=             -1.6173   XZ=             -1.0689   YZ=              0.0257

  Exact polarizability: 207.982 -22.052 150.640  -1.332  -1.230 157.545
 Approx polarizability: 283.044 -41.069 215.260  -1.128  -1.921 266.234

                      1                      2                      3
                      A                      A                      A
 Frequencies --     23.0464                31.5983                47.2040
 Red. masses --      4.3709                 3.6193                 5.0405
 Frc consts  --      0.0014                 0.0021                 0.0066
 IR Inten    --      0.8149                 0.0146                 0.3016

                      4                      5                      6
                      A                      A                      A
 Frequencies --     66.4110                95.5843               125.8280
 Red. masses --      3.7857                 2.5617                 3.2548
 Frc consts  --      0.0098                 0.0138                 0.0304
 IR Inten    --      4.3591                 0.1607                 0.4170

                      7                      8                      9
                      A                      A                      A
 Frequencies --    134.0534               145.8979               160.0124
 Red. masses --      3.7255                 1.0971                 1.0597
 Frc consts  --      0.0394                 0.0138                 0.0160
 IR Inten    --      0.3602                 0.1992                 0.0711

                     10                     11                     12
                      A                      A                      A
 Frequencies --    173.7523               194.1582               202.9877
 Red. masses --      2.4145                 2.6478                 4.4191
 Frc consts  --      0.0429                 0.0588                 0.1073
 IR Inten    --      0.1706                 0.4166                 0.4103

                     13                     14                     15
                      A                      A                      A
 Frequencies --    209.0392               232.8587               257.5817
 Red. masses --      2.7317                 2.0641                 1.1677
 Frc consts  --      0.0703                 0.0659                 0.0456
 IR Inten    --      0.9655                 0.0632                 0.1779

                     16                     17                     18
                      A                      A                      A
 Frequencies --    275.6423               296.2581               302.2065
 Red. masses --      1.6889                 3.8553                 1.5311
 Frc consts  --      0.0756                 0.1994                 0.0824
 IR Inten    --      3.0187                 3.4233                 3.2231

                     19                     20                     21
                      A                      A                      A
 Frequencies --    337.8660               359.2221               405.3013
 Red. masses --      2.2354                 3.2460                 2.8769
 Frc consts  --      0.1503                 0.2468                 0.2784
 IR Inten    --      0.4476                 1.8273                 0.0743

                     22                     23                     24
                      A                      A                      A
 Frequencies --    408.6597               427.3818               462.4077
 Red. masses --      2.6238                 4.9078                 2.2308
 Frc consts  --      0.2582                 0.5282                 0.2810
 IR Inten    --      2.9760                26.0442                 0.7597

                     25                     26                     27
                      A                      A                      A
 Frequencies --    482.1585               525.4975               543.9270
 Red. masses --      3.5943                 3.2377                 2.7637
 Frc consts  --      0.4923                 0.5268                 0.4817
 IR Inten    --      5.1571                14.7915                10.3566

                     28                     29                     30
                      A                      A                      A
 Frequencies --    558.8709               634.4387               636.1291
 Red. masses --      3.6596                 5.8835                 4.3617
 Frc consts  --      0.6735                 1.3953                 1.0399
 IR Inten    --      1.7268                 2.1892                 9.5344

                     31                     32                     33
                      A                      A                      A
 Frequencies --    670.2153               688.5245               705.8475
 Red. masses --      3.4301                 2.0703                 4.7287
 Frc consts  --      0.9078                 0.5782                 1.3881
 IR Inten    --      7.3599                 7.6129                 5.4081

                     34                     35                     36
                      A                      A                      A
 Frequencies --    716.9055               755.5205               765.4764
 Red. masses --      1.8916                 1.7133                 1.7236
 Frc consts  --      0.5728                 0.5762                 0.5951
 IR Inten    --     28.6821                26.3515                 3.3111

                     37                     38                     39
                      A                      A                      A
 Frequencies --    782.0130               793.0656               826.8691
 Red. masses --      1.5173                 2.1957                 2.6778
 Frc consts  --      0.5467                 0.8136                 1.0787
 IR Inten    --     18.2968                27.1104                 4.2608

                     40                     41                     42
                      A                      A                      A
 Frequencies --    841.9992               859.1814               871.5201
 Red. masses --      2.0543                 1.6749                 1.2514
 Frc consts  --      0.8581                 0.7285                 0.5600
 IR Inten    --     19.2688               144.5457                 0.7262

                     43                     44                     45
                      A                      A                      A
 Frequencies --    881.8600               917.5214               933.0740
 Red. masses --      1.6373                 1.8963                 1.3417
 Frc consts  --      0.7502                 0.9406                 0.6883
 IR Inten    --     94.7921                 3.8314                 0.0905

                     46                     47                     48
                      A                      A                      A
 Frequencies --    959.0420               961.1144               969.3069
 Red. masses --      1.6330                 1.7148                 1.8825
 Frc consts  --      0.8849                 0.9333                 1.0421
 IR Inten    --      4.3602                 4.4366                 2.1866

                     49                     50                     51
                      A                      A                      A
 Frequencies --    975.5347              1001.5649              1015.3002
 Red. masses --      1.3712                 1.2544                 6.1269
 Frc consts  --      0.7689                 0.7414                 3.7212
 IR Inten    --      0.0714                 0.0381                 2.1160

                     52                     53                     54
                      A                      A                      A
 Frequencies --   1026.4644              1055.9155              1062.4275
 Red. masses --      2.3136                 2.9565                 1.7008
 Frc consts  --      1.4363                 1.9422                 1.1311
 IR Inten    --      8.5210                 0.2941                 5.1040

                     55                     56                     57
                      A                      A                      A
 Frequencies --   1077.0490              1107.3261              1130.0101
 Red. masses --      1.3542                 1.7171                 2.8546
 Frc consts  --      0.9256                 1.2405                 2.1476
 IR Inten    --      3.3874                 0.6166                44.2560

                     58                     59                     60
                      A                      A                      A
 Frequencies --   1139.6371              1191.5523              1194.7017
 Red. masses --      2.3517                 1.7899                 1.1034
 Frc consts  --      1.7996                 1.4973                 0.9279
 IR Inten    --     39.3538                10.7029                 0.0483

                     61                     62                     63
                      A                      A                      A
 Frequencies --   1208.9841              1225.1817              1233.1703
 Red. masses --      1.7937                 1.1574                 1.6998
 Frc consts  --      1.5447                 1.0236                 1.5230
 IR Inten    --     25.6518                 2.6177                23.4308

                     64                     65                     66
                      A                      A                      A
 Frequencies --   1239.8174              1279.0407              1311.4893
 Red. masses --      1.9224                 1.5828                 2.0654
 Frc consts  --      1.7410                 1.5256                 2.0931
 IR Inten    --     13.8037                 2.1319                 8.4409

                     67                     68                     69
                      A                      A                      A
 Frequencies --   1313.6144              1317.4765              1328.6150
 Red. masses --      1.6473                 2.8660                 1.3677
 Frc consts  --      1.6748                 2.9309                 1.4224
 IR Inten    --      0.9025                 0.0458                35.2974

                     70                     71                     72
                      A                      A                      A
 Frequencies --   1336.0929              1349.9665              1370.9024
 Red. masses --      1.2373                 1.3939                 1.5320
 Frc consts  --      1.3014                 1.4966                 1.6963
 IR Inten    --     27.6518                 0.6247                 2.7833

                     73                     74                     75
                      A                      A                      A
 Frequencies --   1432.0028              1450.6657              1474.5902
 Red. masses --      1.2446                 1.2177                 2.0475
 Frc consts  --      1.5038                 1.5098                 2.6231
 IR Inten    --      6.4738                 2.5143                12.1805

                     76                     77                     78
                      A                      A                      A
 Frequencies --   1475.6282              1485.2234              1490.8876
 Red. masses --      1.0866                 1.0874                 1.0563
 Frc consts  --      1.3941                 1.4133                 1.3833
 IR Inten    --     11.8341                 2.4572                 0.2022

                     79                     80                     81
                      A                      A                      A
 Frequencies --   1494.6911              1500.6216              1505.0194
 Red. masses --      1.0539                 1.0511                 1.0533
 Frc consts  --      1.3873                 1.3946                 1.4057
 IR Inten    --      1.2358                 3.9779                 4.0729

                     82                     83                     84
                      A                      A                      A
 Frequencies --   1515.1562              1526.4268              1535.9481
 Red. masses --      1.0460                 1.0577                 1.0535
 Frc consts  --      1.4148                 1.4520                 1.4644
 IR Inten    --      1.6462                 2.0679                 3.3285

                     85                     86                     87
                      A                      A                      A
 Frequencies --   1536.9963              1539.5308              1627.3506
 Red. masses --      1.9503                 1.0538                 4.7698
 Frc consts  --      2.7146                 1.4716                 7.4423
 IR Inten    --      1.0857                 5.1200                 0.0388

                     88                     89                     90
                      A                      A                      A
 Frequencies --   1650.1328              1840.9319              2984.7337
 Red. masses --      5.2338                12.5677                 1.0818
 Frc consts  --      8.3966                25.0948                 5.6781
 IR Inten    --      1.1166               277.1261                15.5838

                     91                     92                     93
                      A                      A                      A
 Frequencies --   3026.7028              3039.4325              3042.4980
 Red. masses --      1.0677                 1.0380                 1.0354
 Frc consts  --      5.7631                 5.6499                 5.6469
 IR Inten    --     11.6297                25.1179                 6.3440

                     94                     95                     96
                      A                      A                      A
 Frequencies --   3044.0223              3046.1498              3049.7308
 Red. masses --      1.0504                 1.0461                 1.0428
 Frc consts  --      5.7347                 5.7193                 5.7142
 IR Inten    --     15.4993                 5.5618                13.0798

                     97                     98                     99
                      A                      A                      A
 Frequencies --   3098.2363              3103.2949              3104.8080
 Red. masses --      1.1019                 1.0985                 1.0959
 Frc consts  --      6.2321                 6.2327                 6.2243
 IR Inten    --     13.9429                18.8144                19.5645

                    100                    101                    102
                      A                      A                      A
 Frequencies --   3106.9384              3113.3879              3114.6239
 Red. masses --      1.0969                 1.1002                 1.1001
 Frc consts  --      6.2383                 6.2831                 6.2875
 IR Inten    --     32.8665                10.1426                 9.4881

                    103                    104                    105
                      A                      A                      A
 Frequencies --   3116.3235              3118.3994              3130.3280
 Red. masses --      1.1016                 1.1005                 1.0995
 Frc consts  --      6.3034                 6.3055                 6.3480
 IR Inten    --     35.7647                26.2943                 9.8697

                    106                    107                    108
                      A                      A                      A
 Frequencies --   3133.9607              3166.7636              3174.1721
 Red. masses --      1.0990                 1.0863                 1.0856
 Frc consts  --      6.3595                 6.4186                 6.4446
 IR Inten    --     24.0926                 8.4946                 3.9236

                    109                    110                    111
                      A                      A                      A
 Frequencies --   3184.7190              3193.4828              3205.5343
 Red. masses --      1.0895                 1.0936                 1.0978
 Frc consts  --      6.5105                 6.5709                 6.6463
 IR Inten    --      4.2930                44.1294                28.9865

 - Thermochemistry -
 -------------------
 Temperature   298.150 Kelvin.  Pressure   1.00000 Atm.
 Atom     1 has atomic number 14 and mass  27.97693

 Molecular mass:   246.14399 amu.
 Principal axes and moments of inertia in atomic units:
                           1         2         3
     Eigenvalues --  2399.042436819.306697573.41653
           X            0.99999   0.00042  -0.00348
           Y           -0.00043   1.00000  -0.00288
           Z            0.00348   0.00288   0.99999
 This molecule is an asymmetric top.
 Rotational symmetry number  1.
 Warning -- assumption of classical behavior for rotation
           may cause significant error
 Rotational temperatures (Kelvin)      0.03610     0.01270     0.01144
 Rotational constants (GHZ):           0.75228     0.26465     0.23830
 Zero-point vibrational energy     876425.6 (Joules/Mol)
                                  209.47075 (Kcal/Mol)
 Warning -- explicit consideration of  28 degrees of freedom as
           vibrations may cause significant error
 Vibrational temperatures:     33.16    45.46    67.92    95.55   137.52
          (Kelvin)            181.04   192.87   209.91   230.22   249.99
                              279.35   292.05   300.76   335.03   370.60
                              396.59   426.25   434.81   486.11   516.84
                              583.14   587.97   614.91   665.30   693.72
                              756.07   782.59   804.09   912.82   915.25
                              964.29   990.63  1015.56  1031.47  1087.03
                             1101.35  1125.14  1141.04  1189.68  1211.45
                             1236.17  1253.92  1268.80  1320.11  1342.49
                             1379.85  1382.83  1394.62  1403.58  1441.03
                             1460.79  1476.85  1519.23  1528.60  1549.63
                             1593.20  1625.83  1639.68  1714.38  1718.91
                             1739.46  1762.76  1774.26  1783.82  1840.25
                             1886.94  1890.00  1895.55  1911.58  1922.34
                             1942.30  1972.42  2060.33  2087.18  2121.61
                             2123.10  2136.91  2145.05  2150.53  2159.06
                             2165.39  2179.97  2196.19  2209.89  2211.39
                             2215.04  2341.39  2374.17  2648.69  4294.37
                             4354.75  4373.07  4377.48  4379.67  4382.73
                             4387.88  4457.67  4464.95  4467.13  4470.19
                             4479.47  4481.25  4483.69  4486.68  4503.84
                             4509.07  4556.27  4566.93  4582.10  4594.71
                             4612.05

 Zero-point correction=                           0.333813 (Hartree/Particle)
 Thermal correction to Energy=                    0.352861
 Thermal correction to Enthalpy=                  0.353805
 Thermal correction to Gibbs Free Energy=         0.286236
 Sum of electronic and zero-point Energies=           -949.266330
 Sum of electronic and thermal Energies=              -949.247282
 Sum of electronic and thermal Enthalpies=            -949.246338
 Sum of electronic and thermal Free Energies=         -949.313907

                     E (Thermal)             CV                S
                      KCal/Mol        Cal/Mol-Kelvin    Cal/Mol-Kelvin
 Total                  221.423             72.736            142.210
 Electronic               0.000              0.000              0.000
 Translational            0.889              2.981             42.403
 Rotational               0.889              2.981             33.182
 Vibrational            219.646             66.775             66.624
 Vibration     1          0.593              1.985              6.353
 Vibration     2          0.594              1.983              5.726
 Vibration     3          0.595              1.979              4.931
 Vibration     4          0.598              1.970              4.257
 Vibration     5          0.603              1.952              3.542
 Vibration     6          0.611              1.927              3.009
 Vibration     7          0.613              1.919              2.887
 Vibration     8          0.617              1.907              2.725
 Vibration     9          0.622              1.891              2.550
 Vibration    10          0.627              1.875              2.395
 Vibration    11          0.635              1.848              2.188
 Vibration    12          0.639              1.836              2.106
 Vibration    13          0.642              1.827              2.052
 Vibration    14          0.654              1.791              1.857
 Vibration    15          0.667              1.750              1.678
 Vibration    16          0.677              1.718              1.561
 Vibration    17          0.690              1.681              1.438
 Vibration    18          0.694              1.670              1.405
 Vibration    19          0.718              1.600              1.222
 Vibration    20          0.734              1.556              1.125
 Vibration    21          0.770              1.459              0.943
 Vibration    22          0.773              1.451              0.931
 Vibration    23          0.789              1.411              0.867
 Vibration    24          0.820              1.333              0.759
 Vibration    25          0.838              1.290              0.704
 Vibration    26          0.880              1.194              0.597
 Vibration    27          0.899              1.153              0.557
 Vibration    28          0.914              1.120              0.526

 Normal termination of Gaussian 16 at Fri Feb 23 22:27:42 2024.
