 Gaussian 16, Revision A.03,
 Gaussian 16:  EM64M-G16RevA.03 25-Dec-2016

 ---------------------
 # freq b3lyp/6-31g(d)
 ---------------------

 ---------
 good luck
 ---------
 Symbolic Z-matrix:
 Charge =  0 Multiplicity = 1

                         Standard orientation:
 ---------------------------------------------------------------------
 Center     Atomic      Atomic             Coordinates (Angstroms)
 Number     Number       Type             X           Y           Z
 ---------------------------------------------------------------------
      1         14           0        0.371760    1.202679    0.776467
      2          6           0        0.495210    2.926060   -0.002963
      3          6           0        0.564372    1.401201    2.653457
      4          6           0       -1.352044    0.396378    0.508951
      5          6           0       -2.047697    0.329833   -0.903222
      6          6           0       -2.601215    1.690284   -1.349944
      7          6           0       -1.111554   -0.228935   -1.992316
      8          6           0       -3.197741   -0.677789   -0.650481
      9          6           0       -2.682975   -1.658427    0.399704
     10          8           0       -3.175531   -2.729568    0.680406
     11          6           0       -1.434122   -1.052664    1.047525
     12          6           0        1.792929    0.120058    0.137514
     13          6           0        2.212213   -1.022411    0.847191
     14          6           0        3.260434   -1.823988    0.391531
     15          6           0        3.926167   -1.496618   -0.790568
     16          6           0        3.538775   -0.364097   -1.508308
     17          6           0        2.487167    0.429660   -1.046946
     18          1           0        0.457853    2.912250   -1.097588
     19          1           0       -0.322393    3.568627    0.344519
     20          1           0        1.437635    3.404959    0.289178
     21          1           0       -0.232687    2.033841    3.063548
     22          1           0        0.526392    0.442657    3.183626
     23          1           0        1.522615    1.874203    2.898116
     24          1           0       -2.021076    1.006044    1.140144
     25          1           0       -3.265532    2.117412   -0.588310
     26          1           0       -3.180091    1.588484   -2.276287
     27          1           0       -1.801015    2.412724   -1.540601
     28          1           0       -0.272613    0.446987   -2.188051
     29          1           0       -0.689535   -1.202494   -1.718225
     30          1           0       -1.658930   -0.359771   -2.933878
     31          1           0       -4.067892   -0.164317   -0.213429
     32          1           0       -3.552357   -1.202565   -1.543981
     33          1           0       -1.495541   -1.129573    2.138154
     34          1           0       -0.575078   -1.664304    0.738303
     35          1           0        1.720873   -1.292244    1.779494
     36          1           0        3.559327   -2.700402    0.961077
     37          1           0        4.744116   -2.117137   -1.147438
     38          1           0        4.056497   -0.097338   -2.426353
     39          1           0        2.209521    1.309722   -1.622556
 ---------------------------------------------------------------------

 SCF Done:  E(RB3LYP) =  -949.599997294     A.U. after   14 cycles

 The electronic state is 1-A.
 Alpha  occ. eigenvalues --  -66.12516 -19.13027 -10.26656 -10.20589 -10.19323
 Alpha  occ. eigenvalues --  -10.19291 -10.19265 -10.19128 -10.19121 -10.18824
 Alpha  occ. eigenvalues --  -10.18396 -10.18011 -10.17897 -10.17782 -10.17612
 Alpha  occ. eigenvalues --  -10.16759 -10.16431  -5.26903  -3.62801  -3.62781
 Alpha  occ. eigenvalues --   -3.62756  -1.02998  -0.84943  -0.84435  -0.75498
 Alpha  occ. eigenvalues --   -0.74401  -0.74346  -0.71212  -0.69761  -0.68803
 Alpha  occ. eigenvalues --   -0.68034  -0.63705  -0.60121  -0.59745  -0.54343
 Alpha  occ. eigenvalues --   -0.52981  -0.51983  -0.48106  -0.46680  -0.45578
 Alpha  occ. eigenvalues --   -0.44683  -0.44425  -0.43934  -0.43090  -0.42066
 Alpha  occ. eigenvalues --   -0.41419  -0.41079  -0.40556  -0.40353  -0.39494
 Alpha  occ. eigenvalues --   -0.39137  -0.38792  -0.37798  -0.37625  -0.36399
 Alpha  occ. eigenvalues --   -0.36324  -0.34674  -0.34256  -0.32962  -0.32596
 Alpha  occ. eigenvalues --   -0.32215  -0.30103  -0.29620  -0.28939  -0.25105
 Alpha  occ. eigenvalues --   -0.24847  -0.22835
 Alpha virt. eigenvalues --   -0.01543  -0.01054  -0.00157   0.05682   0.07616
 Alpha virt. eigenvalues --    0.08930   0.09079   0.10962   0.11350   0.11840
 Alpha virt. eigenvalues --    0.12264   0.12839   0.13451   0.13764   0.14203

 Mulliken charges:
               1
     1  Si   0.685197
     2  C   -0.673359
     3  C   -0.668454
     4  C   -0.300574
     5  C    0.087794
     6  C   -0.460100
     7  C   -0.456778
     8  C   -0.360829
     9  C    0.443496
    10  O   -0.451546
    11  C   -0.383503
    12  C   -0.042122
    13  C   -0.181793
    14  C   -0.123297
    15  C   -0.133446
    16  C   -0.119809
    17  C   -0.182955
    18  H    0.162001
    19  H    0.164580
    20  H    0.169020
    21  H    0.159835
    22  H    0.161350
    23  H    0.167138
    24  H    0.136576
    25  H    0.136868
    26  H    0.143222
    27  H    0.148901
    28  H    0.154512
    29  H    0.153368
    30  H    0.140308
    31  H    0.164277
    32  H    0.164866
    33  H    0.169355
    34  H    0.180269
    35  H    0.127872
    36  H    0.131642
    37  H    0.132320
    38  H    0.129644
    39  H    0.124153
 Sum of Mulliken charges =  -0.00000

 Dipole moment (field-independent basis, Debye):
    X=              1.5712    Y=              2.6582    Z=             -0.6985  Tot=              3.1659
 Quadrupole moment (field-independent basis, Debye-Ang):
   XX=           -113.5863   YY=           -117.7212   ZZ=           -107.0772
   XY=            -13.0109   XZ=              0.5054   YZ=              1.3339

  Exact polarizability: 187.199 -16.607 168.653 -12.737  -9.455 159.085
 Approx polarizability: 253.009 -26.547 261.722 -29.454 -26.475 250.307

                      1                      2                      3
                      A                      A                      A
 Frequencies --     20.7977                46.4682                48.1302
 Red. masses --      4.0640                 3.6257                 5.2205
 Frc consts  --      0.0010                 0.0046                 0.0071
 IR Inten    --      0.5316                 0.0582                 0.5490

                      4                      5                      6
                      A                      A                      A
 Frequencies --     73.2511               103.6241               113.1802
 Red. masses --      3.6534                 2.6712                 3.6452
 Frc consts  --      0.0115                 0.0169                 0.0275
 IR Inten    --      4.0574                 0.2378                 0.5710

                      7                      8                      9
                      A                      A                      A
 Frequencies --    133.4617               155.3927               167.3894
 Red. masses --      2.8849                 1.0937                 2.1101
 Frc consts  --      0.0303                 0.0156                 0.0348
 IR Inten    --      0.0737                 0.0254                 0.1085

                     10                     11                     12
                      A                      A                      A
 Frequencies --    190.5514               195.4339               200.1020
 Red. masses --      2.9977                 2.1320                 1.9648
 Frc consts  --      0.0641                 0.0480                 0.0464
 IR Inten    --      0.1496                 0.6039                 0.1582

                     13                     14                     15
                      A                      A                      A
 Frequencies --    216.4614               232.3731               249.4977
 Red. masses --      1.7742                 1.5090                 1.4251
 Frc consts  --      0.0490                 0.0480                 0.0523
 IR Inten    --      0.8265                 0.1056                 0.0856

                     16                     17                     18
                      A                      A                      A
 Frequencies --    265.2341               295.3363               318.6589
 Red. masses --      1.2321                 3.0175                 3.7314
 Frc consts  --      0.0511                 0.1551                 0.2232
 IR Inten    --      0.4638                 5.9913                 4.6671

                     19                     20                     21
                      A                      A                      A
 Frequencies --    333.4625               353.7246               402.9660
 Red. masses --      2.2557                 3.4441                 2.9191
 Frc consts  --      0.1478                 0.2539                 0.2793
 IR Inten    --      0.4313                 5.6805                11.0292

                     22                     23                     24
                      A                      A                      A
 Frequencies --    406.8942               413.7467               466.1442
 Red. masses --      2.9895                 3.5520                 2.2551
 Frc consts  --      0.2916                 0.3583                 0.2887
 IR Inten    --      0.4442                 0.8639                 0.3689

                     25                     26                     27
                      A                      A                      A
 Frequencies --    486.6400               523.2928               548.7225
 Red. masses --      3.5076                 3.2274                 2.9808
 Frc consts  --      0.4894                 0.5207                 0.5288
 IR Inten    --     14.0626                12.1808                12.3571

                     28                     29                     30
                      A                      A                      A
 Frequencies --    559.1307               634.8196               643.8526
 Red. masses --      3.3910                 6.3879                 4.3127
 Frc consts  --      0.6246                 1.5167                 1.0534
 IR Inten    --      3.0253                 0.4998                21.0585

                     31                     32                     33
                      A                      A                      A
 Frequencies --    666.4315               688.3732               705.2557
 Red. masses --      3.3439                 2.0244                 4.6943
 Frc consts  --      0.8750                 0.5652                 1.3757
 IR Inten    --      1.4896                 7.4748                 5.8518

                     34                     35                     36
                      A                      A                      A
 Frequencies --    717.7071               755.4693               776.5645
 Red. masses --      1.9029                 1.6959                 1.6149
 Frc consts  --      0.5775                 0.5703                 0.5738
 IR Inten    --     28.5294                29.9327                 3.8761

                     37                     38                     39
                      A                      A                      A
 Frequencies --    780.2763               788.8500               814.8859
 Red. masses --      1.7375                 2.0428                 2.0887
 Frc consts  --      0.6233                 0.7490                 0.8172
 IR Inten    --      6.2627                43.8050                10.4491

                     40                     41                     42
                      A                      A                      A
 Frequencies --    834.1374               871.4960               873.5471
 Red. masses --      2.4274                 1.2668                 1.4973
 Frc consts  --      0.9951                 0.5669                 0.6732
 IR Inten    --      2.5449                 7.2502                85.0053

                     43                     44                     45
                      A                      A                      A
 Frequencies --    882.1607               917.7460               934.3323
 Red. masses --      1.9124                 1.8967                 1.3366
 Frc consts  --      0.8768                 0.9412                 0.6874
 IR Inten    --    156.1775                10.1971                 0.0813

                     46                     47                     48
                      A                      A                      A
 Frequencies --    957.4805               961.3417               968.5908
 Red. masses --      1.4641                 1.8973                 1.8817
 Frc consts  --      0.7908                 1.0331                 1.0401
 IR Inten    --      1.1581                 5.8133                 1.5645

                     49                     50                     51
                      A                      A                      A
 Frequencies --    977.0213              1001.9722              1015.6594
 Red. masses --      1.3692                 1.2542                 6.2307
 Frc consts  --      0.7701                 0.7418                 3.7869
 IR Inten    --      0.1276                 0.0969                 0.8980

                     52                     53                     54
                      A                      A                      A
 Frequencies --   1027.2986              1056.4444              1061.2597
 Red. masses --      2.1917                 3.0362                 1.7057
 Frc consts  --      1.3628                 1.9965                 1.1319
 IR Inten    --      3.2786                 0.5608                 2.7550

                     55                     56                     57
                      A                      A                      A
 Frequencies --   1078.8823              1108.3583              1129.1664
 Red. masses --      1.4162                 1.7217                 2.7411
 Frc consts  --      0.9713                 1.2461                 2.0592
 IR Inten    --      2.2877                 0.2113                42.9418

                     58                     59                     60
                      A                      A                      A
 Frequencies --   1141.7435              1193.0058              1195.0780
 Red. masses --      2.3816                 1.7750                 1.1125
 Frc consts  --      1.8292                 1.4884                 0.9361
 IR Inten    --     32.1472                21.6359                 0.8444

                     61                     62                     63
                      A                      A                      A
 Frequencies --   1209.1626              1227.0559              1233.6667
 Red. masses --      1.7973                 1.1597                 1.7374
 Frc consts  --      1.5482                 1.0287                 1.5579
 IR Inten    --     31.4933                 3.4934                22.4055

                     64                     65                     66
                      A                      A                      A
 Frequencies --   1238.6104              1279.6874              1310.6089
 Red. masses --      1.9044                 1.5773                 2.0320
 Frc consts  --      1.7214                 1.5219                 2.0564
 IR Inten    --     11.8389                 1.9555                13.4037

                     67                     68                     69
                      A                      A                      A
 Frequencies --   1316.3926              1318.1263              1327.9783
 Red. masses --      1.7004                 2.6152                 1.4248
 Frc consts  --      1.7361                 2.6771                 1.4805
 IR Inten    --      2.8024                 0.5429                33.5054

                     70                     71                     72
                      A                      A                      A
 Frequencies --   1335.1482              1350.4965              1372.2609
 Red. masses --      1.2269                 1.3977                 1.5127
 Frc consts  --      1.2886                 1.5019                 1.6783
 IR Inten    --     20.7571                 3.2502                 2.6617

                     73                     74                     75
                      A                      A                      A
 Frequencies --   1432.4437              1451.2879              1474.5218
 Red. masses --      1.2448                 1.2183                 2.0495
 Frc consts  --      1.5049                 1.5118                 2.6255
 IR Inten    --      6.0273                 2.5784                11.9699

                     76                     77                     78
                      A                      A                      A
 Frequencies --   1476.0261              1487.1231              1491.9109
 Red. masses --      1.0870                 1.0841                 1.0544
 Frc consts  --      1.3953                 1.4125                 1.3828
 IR Inten    --     10.6744                 4.0321                 0.5377

                     79                     80                     81
                      A                      A                      A
 Frequencies --   1492.8451              1498.8574              1504.9193
 Red. masses --      1.0585                 1.0537                 1.0519
 Frc consts  --      1.3898                 1.3947                 1.4037
 IR Inten    --      1.9637                 3.6427                 4.9192

                     82                     83                     84
                      A                      A                      A
 Frequencies --   1512.2905              1523.9023              1533.9831
 Red. masses --      1.0461                 1.0550                 1.0737
 Frc consts  --      1.4097                 1.4434                 1.4886
 IR Inten    --      1.6830                 7.7181                 6.5076

                     85                     86                     87
                      A                      A                      A
 Frequencies --   1536.6208              1537.9042              1627.4192
 Red. masses --      1.0674                 1.8482                 4.7492
 Frc consts  --      1.4849                 2.5755                 7.4109
 IR Inten    --      4.2868                 0.8839                 0.0757

                     88                     89                     90
                      A                      A                      A
 Frequencies --   1650.2757              1840.6526              2977.8495
 Red. masses --      5.2326                12.5750                 1.0817
 Frc consts  --      8.3962                25.1016                 5.6513
 IR Inten    --      1.5403               262.0813                21.6973

                     91                     92                     93
                      A                      A                      A
 Frequencies --   3026.9340              3040.9438              3042.4121
 Red. masses --      1.0678                 1.0380                 1.0357
 Frc consts  --      5.7642                 5.6556                 5.6484
 IR Inten    --     12.5193                26.4617                 6.4423

                     94                     95                     96
                      A                      A                      A
 Frequencies --   3044.9820              3045.3940              3049.1065
 Red. masses --      1.0395                 1.0548                 1.0440
 Frc consts  --      5.6785                 5.7639                 5.7186
 IR Inten    --      1.7333                21.2383                10.8258

                     97                     98                     99
                      A                      A                      A
 Frequencies --   3100.0031              3104.1792              3105.4275
 Red. masses --      1.1016                 1.0949                 1.0965
 Frc consts  --      6.2376                 6.2164                 6.2300
 IR Inten    --     13.8771                 7.8184                24.5029

                    100                    101                    102
                      A                      A                      A
 Frequencies --   3109.2519              3112.3157              3115.1941
 Red. masses --      1.0999                 1.1003                 1.1005
 Frc consts  --      6.2648                 6.2793                 6.2926
 IR Inten    --     42.4238                 6.8408                31.7344

                    103                    104                    105
                      A                      A                      A
 Frequencies --   3119.7191              3119.9959              3121.5279
 Red. masses --      1.1004                 1.1004                 1.1013
 Frc consts  --      6.3100                 6.3113                 6.3224
 IR Inten    --     19.5179                20.4564                10.4078

                    106                    107                    108
                      A                      A                      A
 Frequencies --   3127.7258              3171.2500              3174.3562
 Red. masses --      1.0986                 1.0852                 1.0863
 Frc consts  --      6.3321                 6.4304                 6.4492
 IR Inten    --     33.4651                 7.1599                 4.4160

                    109                    110                    111
                      A                      A                      A
 Frequencies --   3185.6129              3194.1994              3206.0251
 Red. masses --      1.0897                 1.0937                 1.0979
 Frc consts  --      6.5155                 6.5745                 6.6487
 IR Inten    --      6.1017                44.5457                26.8261

 - Thermochemistry -
 -------------------
 Temperature   298.150 Kelvin.  Pressure   1.00000 Atm.
 Atom     1 has atomic number 14 and mass  27.97693

 Molecular mass:   246.14399 amu.
 Principal axes and moments of inertia in atomic units:
                           1         2         3
     Eigenvalues --  3151.182856014.931896689.71485
           X            0.99958  -0.02629   0.01181
           Y            0.02627   0.99965   0.00174
           Z           -0.01185  -0.00143   0.99993
 This molecule is an asymmetric top.
 Rotational symmetry number  1.
 Warning -- assumption of classical behavior for rotation
           may cause significant error
 Rotational temperatures (Kelvin)      0.02749     0.01440     0.01295
 Rotational constants (GHZ):           0.57272     0.30004     0.26978
 Zero-point vibrational energy     876658.5 (Joules/Mol)
                                  209.52642 (Kcal/Mol)
 Warning -- explicit consideration of  28 degrees of freedom as
           vibrations may cause significant error
 Vibrational temperatures:     29.92    66.86    69.25   105.39   149.09
          (Kelvin)            162.84   192.02   223.58   240.84   274.16
                              281.19   287.90   311.44   334.33   358.97
                              381.61   424.92   458.48   479.78   508.93
                              579.78   585.43   595.29   670.68   700.17
                              752.90   789.49   804.46   913.36   926.36
                              958.85   990.42  1014.71  1032.62  1086.95
                             1117.30  1122.64  1134.98  1172.44  1200.14
                             1253.89  1256.84  1269.23  1320.43  1344.30
                             1377.60  1383.16  1393.59  1405.72  1441.61
                             1461.31  1478.05  1519.99  1526.92  1552.27
                             1594.68  1624.62  1642.71  1716.47  1719.45
                             1739.72  1765.46  1774.97  1782.08  1841.18
                             1885.67  1894.00  1896.49  1910.66  1920.98
                             1943.06  1974.38  2060.97  2088.08  2121.51
                             2123.67  2139.64  2146.53  2147.87  2156.52
                             2165.24  2175.85  2192.56  2207.06  2210.85
                             2212.70  2341.49  2374.38  2648.29  4284.46
                             4355.08  4375.24  4377.35  4381.05  4381.64
                             4386.98  4460.21  4466.22  4468.02  4473.52
                             4477.93  4482.07  4488.58  4488.98  4491.18
                             4500.10  4562.72  4567.19  4583.39  4595.74
                             4612.76

 Zero-point correction=                           0.333902 (Hartree/Particle)
 Thermal correction to Energy=                    0.352874
 Thermal correction to Enthalpy=                  0.353818
 Thermal correction to Gibbs Free Energy=         0.286737
 Sum of electronic and zero-point Energies=           -949.266096
 Sum of electronic and thermal Energies=              -949.247123
 Sum of electronic and thermal Enthalpies=            -949.246179
 Sum of electronic and thermal Free Energies=         -949.313260

                     E (Thermal)             CV                S
                      KCal/Mol        Cal/Mol-Kelvin    Cal/Mol-Kelvin
 Total                  221.432             72.706            141.183
 Electronic               0.000              0.000              0.000
 Translational            0.889              2.981             42.403
 Rotational               0.889              2.981             33.205
 Vibrational            219.654             66.744             65.575
 Vibration     1          0.593              1.986              6.557
 Vibration     2          0.595              1.979              4.962
 Vibration     3          0.595              1.978              4.893
 Vibration     4          0.599              1.967              4.064
 Vibration     5          0.605              1.946              3.385
 Vibration     6          0.607              1.939              3.214
 Vibration     7          0.613              1.920              2.896
 Vibration     8          0.620              1.897              2.605
 Vibration     9          0.624              1.883              2.465
 Vibration    10          0.634              1.853              2.222
 Vibration    11          0.636              1.846              2.176
 Vibration    12          0.638              1.840              2.132
 Vibration    13          0.645              1.816              1.988
 Vibration    14          0.653              1.791              1.861
 Vibration    15          0.662              1.764              1.734
 Vibration    16          0.671              1.737              1.627
 Vibration    17          0.690              1.682              1.443
 Vibration    18          0.705              1.638              1.317
 Vibration    19          0.715              1.609              1.243
 Vibration    20          0.730              1.568              1.150
 Vibration    21          0.768              1.464              0.952
 Vibration    22          0.772              1.455              0.938
 Vibration    23          0.777              1.440              0.913
 Vibration    24          0.824              1.325              0.748
 Vibration    25          0.843              1.280              0.692
 Vibration    26          0.878              1.198              0.602
 Vibration    27          0.904              1.142              0.547
 Vibration    28          0.915              1.120              0.526

 Normal termination of Gaussian 16 at Fri Feb 23 22:34:35 2024.
