 Gaussian 16, Revision A.03,
 Gaussian 16:  EM64M-G16RevA.03 25-Dec-2016

 ---------------------
 # freq b3lyp/6-31g(d)
 ---------------------

 ---------
 good luck
 ---------
 Symbolic Z-matrix:
 Charge =  0 Multiplicity = 1

                         Standard orientation:
 ---------------------------------------------------------------------
 Center     Atomic      Atomic             Coordinates (Angstroms)
 Number     Number       Type             X           Y           Z
 ---------------------------------------------------------------------
      1         14           0        0.371960   -1.059450    0.438655
      2          6           0        0.212962   -1.264646    2.316748
      3          6           0        0.400216   -2.781183   -0.356409
      4          6           0       -0.991578    0.073750   -0.297983
      5          6           0       -2.485525   -0.396001   -0.467962
      6          6           0       -3.052038   -1.029118    0.818120
      7          6           0       -2.664657   -1.371365   -1.639773
      8          6           0       -3.215378    0.943273   -0.744340
      9          6           0       -2.455378    2.011072    0.038266
     10          8           0       -2.857716    3.122334    0.306154
     11          6           0       -1.090673    1.436127    0.431143
     12          6           0        2.016872   -0.197769    0.049869
     13          6           0        2.518928   -0.172487   -1.265790
     14          6           0        3.716246    0.471395   -1.579542
     15          6           0        4.447771    1.110756   -0.576526
     16          6           0        3.974330    1.099469    0.735788
     17          6           0        2.774708    0.452262    1.040757
     18          1           0        0.148440   -0.307752    2.847142
     19          1           0        1.084676   -1.799829    2.712343
     20          1           0       -0.676578   -1.846313    2.581371
     21          1           0        1.275737   -3.339123   -0.003036
     22          1           0       -0.490142   -3.365417   -0.096550
     23          1           0        0.458891   -2.735682   -1.449795
     24          1           0       -0.631820    0.290861   -1.317496
     25          1           0       -4.123071   -1.235569    0.703580
     26          1           0       -2.936437   -0.373268    1.689164
     27          1           0       -2.557634   -1.979711    1.047533
     28          1           0       -2.153021   -2.322298   -1.458736
     29          1           0       -2.268323   -0.947784   -2.570891
     30          1           0       -3.726704   -1.593947   -1.801380
     31          1           0       -4.280885    0.947284   -0.491181
     32          1           0       -3.137062    1.206505   -1.810295
     33          1           0       -1.081324    1.336504    1.525605
     34          1           0       -0.288819    2.137692    0.180052
     35          1           0        1.969471   -0.666762   -2.065438
     36          1           0        4.079577    0.473163   -2.604263
     37          1           0        5.381142    1.613302   -0.816935
     38          1           0        4.538715    1.593454    1.522849
     39          1           0        2.428616    0.455099    2.071757
 ---------------------------------------------------------------------

 SCF Done:  E(RB3LYP) =  -949.599941843     A.U. after   14 cycles

 The electronic state is 1-A.
 Alpha  occ. eigenvalues --  -66.12502 -19.13076 -10.26697 -10.20761 -10.19173
 Alpha  occ. eigenvalues --  -10.19162 -10.19074 -10.19003 -10.18947 -10.18817
 Alpha  occ. eigenvalues --  -10.18498 -10.18103 -10.17967 -10.17893 -10.17657
 Alpha  occ. eigenvalues --  -10.16672 -10.16659  -5.26897  -3.62792  -3.62773
 Alpha  occ. eigenvalues --   -3.62753  -1.03046  -0.84797  -0.84522  -0.75585
 Alpha  occ. eigenvalues --   -0.74237  -0.74221  -0.71241  -0.69752  -0.69223
 Alpha  occ. eigenvalues --   -0.68084  -0.63830  -0.59958  -0.59583  -0.54515
 Alpha  occ. eigenvalues --   -0.53007  -0.51707  -0.48208  -0.46751  -0.45548
 Alpha  occ. eigenvalues --   -0.44840  -0.44317  -0.43946  -0.43096  -0.41942
 Alpha  occ. eigenvalues --   -0.41441  -0.41161  -0.40849  -0.40465  -0.39467
 Alpha  occ. eigenvalues --   -0.39224  -0.38847  -0.38063  -0.37431  -0.36630
 Alpha  occ. eigenvalues --   -0.36228  -0.34765  -0.34107  -0.33174  -0.32800
 Alpha  occ. eigenvalues --   -0.32119  -0.30388  -0.29585  -0.28726  -0.24952
 Alpha  occ. eigenvalues --   -0.24702  -0.22899
 Alpha virt. eigenvalues --   -0.01157  -0.01118  -0.00096   0.05490   0.08058
 Alpha virt. eigenvalues --    0.08151   0.09359   0.10651   0.11525   0.11814
 Alpha virt. eigenvalues --    0.12234   0.12939   0.13353   0.13833   0.13987

 Mulliken charges:
               1
     1  Si   0.695055
     2  C   -0.686222
     3  C   -0.669170
     4  C   -0.307960
     5  C    0.088815
     6  C   -0.460085
     7  C   -0.459864
     8  C   -0.359886
     9  C    0.441784
    10  O   -0.450760
    11  C   -0.377590
    12  C   -0.040069
    13  C   -0.180049
    14  C   -0.121764
    15  C   -0.133471
    16  C   -0.119821
    17  C   -0.184126
    18  H    0.161107
    19  H    0.168209
    20  H    0.163990
    21  H    0.169664
    22  H    0.160085
    23  H    0.161640
    24  H    0.142251
    25  H    0.144410
    26  H    0.147181
    27  H    0.152656
    28  H    0.149936
    29  H    0.137826
    30  H    0.143252
    31  H    0.164031
    32  H    0.165316
    33  H    0.170580
    34  H    0.183491
    35  H    0.123809
    36  H    0.128858
    37  H    0.131205
    38  H    0.129468
    39  H    0.126218
 Sum of Mulliken charges =  -0.00000

 Dipole moment (field-independent basis, Debye):
    X=              1.1731    Y=             -2.8135    Z=             -0.5908  Tot=              3.1050
 Quadrupole moment (field-independent basis, Debye-Ang):
   XX=           -110.4837   YY=           -122.8451   ZZ=           -105.2304
   XY=             12.8910   XZ=              1.3869   YZ=             -1.4769

  Exact polarizability: 203.161  20.648 152.831  -3.037   6.571 160.760
 Approx polarizability: 267.908  33.322 227.551  -6.711  16.146 266.735

                      1                      2                      3
                      A                      A                      A
 Frequencies --     11.9776                26.4312                48.4626
 Red. masses --      3.7088                 4.3527                 4.5216
 Frc consts  --      0.0003                 0.0018                 0.0063
 IR Inten    --      0.0644                 0.5671                 0.2122

                      4                      5                      6
                      A                      A                      A
 Frequencies --     68.7334                91.9703               128.8271
 Red. masses --      4.0443                 2.6664                 2.6781
 Frc consts  --      0.0113                 0.0133                 0.0262
 IR Inten    --      4.2652                 0.3314                 0.0042

                      7                      8                      9
                      A                      A                      A
 Frequencies --    135.9838               156.3899               175.9295
 Red. masses --      3.5133                 1.1619                 2.5123
 Frc consts  --      0.0383                 0.0167                 0.0458
 IR Inten    --      0.5427                 0.0129                 0.0475

                     10                     11                     12
                      A                      A                      A
 Frequencies --    186.3602               189.7279               205.9306
 Red. masses --      1.5289                 2.4877                 1.8914
 Frc consts  --      0.0313                 0.0528                 0.0473
 IR Inten    --      0.1663                 0.4272                 0.3714

                     13                     14                     15
                      A                      A                      A
 Frequencies --    210.9055               233.1660               253.7879
 Red. masses --      2.7070                 2.1096                 1.1457
 Frc consts  --      0.0709                 0.0676                 0.0435
 IR Inten    --      0.9357                 0.0732                 0.2936

                     16                     17                     18
                      A                      A                      A
 Frequencies --    274.0209               302.5830               306.9758
 Red. masses --      1.4546                 1.9955                 3.6645
 Frc consts  --      0.0644                 0.1076                 0.2035
 IR Inten    --      0.8563                 3.4108                 3.7252

                     19                     20                     21
                      A                      A                      A
 Frequencies --    337.2737               359.1403               394.3692
 Red. masses --      2.2899                 3.5891                 2.5581
 Frc consts  --      0.1535                 0.2727                 0.2344
 IR Inten    --      2.2300                 4.9535                 6.4655

                     22                     23                     24
                      A                      A                      A
 Frequencies --    404.7054               431.9525               463.5486
 Red. masses --      2.8908                 4.3446                 2.2311
 Frc consts  --      0.2790                 0.4776                 0.2825
 IR Inten    --      0.0790                16.1055                 0.3872

                     25                     26                     27
                      A                      A                      A
 Frequencies --    483.0105               525.0251               543.7556
 Red. masses --      3.4665                 3.2348                 2.8013
 Frc consts  --      0.4765                 0.5254                 0.4880
 IR Inten    --     10.2476                15.1077                 7.6627

                     28                     29                     30
                      A                      A                      A
 Frequencies --    559.6359               627.7072               634.8758
 Red. masses --      3.5316                 4.0513                 6.3768
 Frc consts  --      0.6517                 0.9405                 1.5144
 IR Inten    --      3.3054                 9.6160                 0.4338

                     31                     32                     33
                      A                      A                      A
 Frequencies --    683.6336               690.0662               706.9373
 Red. masses --      4.0982                 2.0539                 4.3879
 Frc consts  --      1.1285                 0.5763                 1.2920
 IR Inten    --      7.2562                 7.3196                 7.5043

                     34                     35                     36
                      A                      A                      A
 Frequencies --    716.6154               756.2564               760.4164
 Red. masses --      1.8341                 1.7384                 1.7120
 Frc consts  --      0.5549                 0.5858                 0.5832
 IR Inten    --     31.1043                24.6742                 4.5449

                     37                     38                     39
                      A                      A                      A
 Frequencies --    782.1122               791.7060               826.0773
 Red. masses --      1.4507                 2.4362                 2.5410
 Frc consts  --      0.5228                 0.8997                 1.0216
 IR Inten    --      9.7834                23.9579                17.6789

                     40                     41                     42
                      A                      A                      A
 Frequencies --    840.7600               856.8640               870.4762
 Red. masses --      1.9904                 1.6130                 1.2520
 Frc consts  --      0.8290                 0.6978                 0.5590
 IR Inten    --     17.2178               158.8147                 1.3865

                     43                     44                     45
                      A                      A                      A
 Frequencies --    884.3235               917.7636               931.8798
 Red. masses --      1.7251                 1.8903                 1.3431
 Frc consts  --      0.7948                 0.9381                 0.6872
 IR Inten    --     83.0256                 6.0576                 0.2597

                     46                     47                     48
                      A                      A                      A
 Frequencies --    958.3590               961.4180               969.9963
 Red. masses --      1.5415                 1.8101                 1.8684
 Frc consts  --      0.8342                 0.9858                 1.0358
 IR Inten    --      4.2321                11.8462                 1.8047

                     49                     50                     51
                      A                      A                      A
 Frequencies --    973.7100              1000.9594              1015.5299
 Red. masses --      1.3710                 1.2536                 6.2347
 Frc consts  --      0.7659                 0.7400                 3.7884
 IR Inten    --      0.1103                 0.0151                 1.0216

                     52                     53                     54
                      A                      A                      A
 Frequencies --   1027.6735              1056.1664              1061.6257
 Red. masses --      2.2182                 2.9973                 1.7101
 Frc consts  --      1.3803                 1.9699                 1.1356
 IR Inten    --      4.8209                 0.2472                 3.4460

                     55                     56                     57
                      A                      A                      A
 Frequencies --   1077.6367              1107.4455              1130.0609
 Red. masses --      1.3944                 1.7145                 2.8039
 Frc consts  --      0.9541                 1.2389                 2.1097
 IR Inten    --      1.8780                 0.3569                32.5717

                     58                     59                     60
                      A                      A                      A
 Frequencies --   1140.4569              1193.2603              1194.6802
 Red. masses --      2.4241                 1.7454                 1.1042
 Frc consts  --      1.8576                 1.4643                 0.9286
 IR Inten    --     63.0077                10.0597                 0.0121

                     61                     62                     63
                      A                      A                      A
 Frequencies --   1208.4730              1225.3445              1233.0066
 Red. masses --      1.8137                 1.1582                 1.7002
 Frc consts  --      1.5606                 1.0246                 1.5229
 IR Inten    --     24.6465                 4.2124                33.2003

                     64                     65                     66
                      A                      A                      A
 Frequencies --   1239.1924              1278.8718              1310.8358
 Red. masses --      1.9504                 1.5784                 2.0283
 Frc consts  --      1.7647                 1.5210                 2.0535
 IR Inten    --      9.0089                 1.8063                14.7579

                     67                     68                     69
                      A                      A                      A
 Frequencies --   1314.7972              1319.0495              1328.2389
 Red. masses --      1.7941                 2.5342                 1.3604
 Frc consts  --      1.8274                 2.5979                 1.4141
 IR Inten    --      1.4484                 0.1453                33.1698

                     70                     71                     72
                      A                      A                      A
 Frequencies --   1334.9027              1350.5745              1371.1193
 Red. masses --      1.2405                 1.3887                 1.5384
 Frc consts  --      1.3024                 1.4924                 1.7040
 IR Inten    --     25.1579                 2.7008                 2.6368

                     73                     74                     75
                      A                      A                      A
 Frequencies --   1431.8353              1450.2517              1474.7173
 Red. masses --      1.2463                 1.2185                 2.0427
 Frc consts  --      1.5054                 1.5099                 2.6175
 IR Inten    --      7.3981                 3.3594                13.0114

                     76                     77                     78
                      A                      A                      A
 Frequencies --   1475.9340              1485.3232              1491.4905
 Red. masses --      1.0874                 1.0856                 1.0561
 Frc consts  --      1.3957                 1.4111                 1.3842
 IR Inten    --     10.2897                 3.0294                 0.0756

                     79                     80                     81
                      A                      A                      A
 Frequencies --   1493.1190              1499.4852              1504.4093
 Red. masses --      1.0555                 1.0523                 1.0527
 Frc consts  --      1.3864                 1.3940                 1.4037
 IR Inten    --      0.6470                 5.5239                 4.7954

                     82                     83                     84
                      A                      A                      A
 Frequencies --   1516.1185              1526.6356              1536.6738
 Red. masses --      1.0464                 1.0543                 1.0626
 Frc consts  --      1.4171                 1.4478                 1.4784
 IR Inten    --      1.5827                 2.9736                 4.8007

                     85                     86                     87
                      A                      A                      A
 Frequencies --   1537.4588              1538.7881              1627.9048
 Red. masses --      1.9334                 1.0551                 4.7808
 Frc consts  --      2.6926                 1.4719                 7.4646
 IR Inten    --      0.8202                 5.8099                 0.0236

                     88                     89                     90
                      A                      A                      A
 Frequencies --   1650.7377              1841.1640              2987.0442
 Red. masses --      5.2426                12.5728                 1.0817
 Frc consts  --      8.4169                25.1112                 5.6866
 IR Inten    --      1.1925               257.4319                15.8982

                     91                     92                     93
                      A                      A                      A
 Frequencies --   3027.5728              3040.1731              3043.9291
 Red. masses --      1.0675                 1.0385                 1.0472
 Frc consts  --      5.7653                 5.6551                 5.7167
 IR Inten    --     12.1716                18.7899                 3.9554

                     94                     95                     96
                      A                      A                      A
 Frequencies --   3044.5677              3046.3238              3049.5841
 Red. masses --      1.0459                 1.0400                 1.0410
 Frc consts  --      5.7121                 5.6865                 5.7040
 IR Inten    --     21.6453                 9.7470                10.8689

                     97                     98                     99
                      A                      A                      A
 Frequencies --   3100.7952              3103.6205              3107.4790
 Red. masses --      1.1019                 1.0973                 1.0986
 Frc consts  --      6.2424                 6.2275                 6.2504
 IR Inten    --     12.8368                 4.8328                66.2540

                    100                    101                    102
                      A                      A                      A
 Frequencies --   3111.4686              3113.4791              3115.0533
 Red. masses --      1.0947                 1.1012                 1.1009
 Frc consts  --      6.2439                 6.2893                 6.2941
 IR Inten    --     13.2283                28.1746                13.1080

                    103                    104                    105
                      A                      A                      A
 Frequencies --   3116.8362              3119.8360              3125.7303
 Red. masses --      1.1000                 1.1005                 1.0993
 Frc consts  --      6.2960                 6.3109                 6.3279
 IR Inten    --     27.8752                11.1642                16.5601

                    106                    107                    108
                      A                      A                      A
 Frequencies --   3127.8094              3161.1980              3174.9329
 Red. masses --      1.0993                 1.0868                 1.0853
 Frc consts  --      6.3363                 6.3991                 6.4455
 IR Inten    --     25.0694                11.7527                 2.7454

                    109                    110                    111
                      A                      A                      A
 Frequencies --   3184.4635              3193.3293              3205.2415
 Red. masses --      1.0894                 1.0935                 1.0978
 Frc consts  --      6.5088                 6.5697                 6.6450
 IR Inten    --      4.6199                44.4268                29.5677

 - Thermochemistry -
 -------------------
 Temperature   298.150 Kelvin.  Pressure   1.00000 Atm.
 Atom     1 has atomic number 14 and mass  27.97693

 Molecular mass:   246.14399 amu.
 Principal axes and moments of inertia in atomic units:
                           1         2         3
     Eigenvalues --  2808.321026689.402707601.61315
           X            0.99967   0.02517   0.00441
           Y           -0.02518   0.99968   0.00225
           Z           -0.00435  -0.00236   0.99999
 This molecule is an asymmetric top.
 Rotational symmetry number  1.
 Warning -- assumption of classical behavior for rotation
           may cause significant error
 Rotational temperatures (Kelvin)      0.03084     0.01295     0.01139
 Rotational constants (GHZ):           0.64264     0.26979     0.23742
 Zero-point vibrational energy     876593.3 (Joules/Mol)
                                  209.51082 (Kcal/Mol)
 Warning -- explicit consideration of  28 degrees of freedom as
           vibrations may cause significant error
 Vibrational temperatures:     17.23    38.03    69.73    98.89   132.32
          (Kelvin)            185.35   195.65   225.01   253.12   268.13
                              272.98   296.29   303.45   335.47   365.14
                              394.25   435.35   441.67   485.26   516.72
                              567.41   582.28   621.48   666.94   694.94
                              755.39   782.34   805.19   903.13   913.44
                              983.60   992.85  1017.13  1031.05  1088.08
                             1094.07  1125.28  1139.09  1188.54  1209.67
                             1232.84  1252.42  1272.34  1320.46  1340.77
                             1378.86  1383.27  1395.61  1400.95  1440.16
                             1461.12  1478.59  1519.59  1527.44  1550.48
                             1593.37  1625.91  1640.86  1716.84  1718.88
                             1738.72  1763.00  1774.02  1782.92  1840.01
                             1886.00  1891.70  1897.82  1911.04  1920.63
                             1943.18  1972.73  2060.09  2086.59  2121.79
                             2123.54  2137.05  2145.92  2148.27  2157.42
                             2164.51  2181.36  2196.49  2210.93  2212.06
                             2213.97  2342.19  2375.04  2649.02  4297.69
                             4356.00  4374.13  4379.54  4380.45  4382.98
                             4387.67  4461.35  4465.42  4470.97  4476.71
                             4479.60  4481.87  4484.43  4488.75  4497.23
                             4500.22  4548.26  4568.02  4581.73  4594.49
                             4611.63

 Zero-point correction=                           0.333877 (Hartree/Particle)
 Thermal correction to Energy=                    0.352888
 Thermal correction to Enthalpy=                  0.353832
 Thermal correction to Gibbs Free Energy=         0.285672
 Sum of electronic and zero-point Energies=           -949.266065
 Sum of electronic and thermal Energies=              -949.247054
 Sum of electronic and thermal Enthalpies=            -949.246110
 Sum of electronic and thermal Free Energies=         -949.314270

                     E (Thermal)             CV                S
                      KCal/Mol        Cal/Mol-Kelvin    Cal/Mol-Kelvin
 Total                  221.440             72.694            143.455
 Electronic               0.000              0.000              0.000
 Translational            0.889              2.981             42.403
 Rotational               0.889              2.981             33.323
 Vibrational            219.663             66.732             67.729
 Vibration     1          0.593              1.987              7.653
 Vibration     2          0.593              1.985              6.081
 Vibration     3          0.595              1.978              4.879
 Vibration     4          0.598              1.969              4.189
 Vibration     5          0.602              1.955              3.618
 Vibration     6          0.611              1.924              2.963
 Vibration     7          0.614              1.917              2.860
 Vibration     8          0.620              1.896              2.593
 Vibration     9          0.628              1.872              2.371
 Vibration    10          0.632              1.859              2.264
 Vibration    11          0.633              1.854              2.230
 Vibration    12          0.640              1.831              2.079
 Vibration    13          0.643              1.824              2.036
 Vibration    14          0.654              1.790              1.854
 Vibration    15          0.665              1.756              1.704
 Vibration    16          0.676              1.721              1.571
 Vibration    17          0.694              1.669              1.403
 Vibration    18          0.697              1.660              1.379
 Vibration    19          0.718              1.601              1.225
 Vibration    20          0.734              1.556              1.126
 Vibration    21          0.761              1.482              0.984
 Vibration    22          0.770              1.460              0.946
 Vibration    23          0.793              1.401              0.852
 Vibration    24          0.821              1.331              0.756
 Vibration    25          0.839              1.288              0.702
 Vibration    26          0.880              1.195              0.598
 Vibration    27          0.899              1.153              0.557
 Vibration    28          0.915              1.119              0.525

 Normal termination of Gaussian 16 at Fri Feb 23 22:41:08 2024.
