 Gaussian 16, Revision A.03,
 Gaussian 16:  EM64M-G16RevA.03 25-Dec-2016

 ---------------------
 # freq b3lyp/6-31g(d)
 ---------------------

 ---------
 good luck
 ---------
 Symbolic Z-matrix:
 Charge =  0 Multiplicity = 1

                         Standard orientation:
 ---------------------------------------------------------------------
 Center     Atomic      Atomic             Coordinates (Angstroms)
 Number     Number       Type             X           Y           Z
 ---------------------------------------------------------------------
      1          8           0        2.721919   -1.016642   -0.124733
      2          6           0        2.138786    0.281394   -0.188813
      3          6           0        0.658775    0.095138   -0.474565
      4          6           0       -0.219333   -0.487487    0.695896
      5          6           0       -0.325430    0.984281    1.223429
      6          6           0       -0.279259    1.331648   -0.293259
      7          6           0       -1.627283    0.758981   -0.777463
      8          6           0       -1.555658   -0.594379   -0.025387
      9          8           0       -2.362104   -1.494569   -0.022313
     10          1           0        3.675548   -0.910285    0.011243
     11          1           0        2.309592    0.836852    0.745117
     12          1           0        2.579950    0.876698   -1.006051
     13          1           0        0.567796   -0.435490   -1.431129
     14          1           0        0.093819   -1.332718    1.306968
     15          1           0       -1.225369    1.260960    1.784250
     16          1           0        0.558841    1.298880    1.780212
     17          1           0        0.004075    2.325383   -0.649845
     18          1           0       -2.498570    1.344451   -0.462093
     19          1           0       -1.687788    0.607501   -1.861326
 ---------------------------------------------------------------------

 SCF Done:  E(RB3LYP) =  -423.148037369     A.U. after   14 cycles

 The electronic state is 1-A.
 Alpha  occ. eigenvalues --  -19.14959 -19.13356 -10.26890 -10.24092 -10.20797
 Alpha  occ. eigenvalues --  -10.20430 -10.19991 -10.19902 -10.19246  -1.03332
 Alpha  occ. eigenvalues --   -1.02178  -0.90005  -0.74295  -0.70950  -0.67522
 Alpha  occ. eigenvalues --   -0.62972  -0.54955  -0.52790  -0.51837  -0.50148
 Alpha  occ. eigenvalues --   -0.47037  -0.45358  -0.43241  -0.40234  -0.39435
 Alpha  occ. eigenvalues --   -0.38923  -0.37778  -0.36488  -0.33331  -0.32410
 Alpha  occ. eigenvalues --   -0.32229  -0.31736  -0.27346  -0.23084
 Alpha virt. eigenvalues --   -0.00476   0.06603   0.09019   0.10677   0.12707
 Alpha virt. eigenvalues --    0.13076   0.13943   0.14686   0.16039   0.16476
 Alpha virt. eigenvalues --    0.17665   0.19696   0.20092   0.21138   0.23350

 Mulliken charges:
               1
     1  O   -0.615415
     2  C   -0.045322
     3  C   -0.099792
     4  C   -0.156297
     5  C   -0.295542
     6  C   -0.132028
     7  C   -0.345162
     8  C    0.451615
     9  O   -0.452632
    10  H    0.394503
    11  H    0.121427
    12  H    0.123957
    13  H    0.144680
    14  H    0.147302
    15  H    0.146761
    16  H    0.153519
    17  H    0.126048
    18  H    0.165467
    19  H    0.166910
 Sum of Mulliken charges =  -0.00000

 Dipole moment (field-independent basis, Debye):
    X=              3.1028    Y=              3.4395    Z=              0.1468  Tot=              4.6345
 Quadrupole moment (field-independent basis, Debye-Ang):
   XX=            -51.1783   YY=            -57.9070   ZZ=            -51.6613
   XY=             -4.1079   XZ=              0.8361   YZ=             -0.4187

  Exact polarizability:  84.544   2.033  70.381   1.533  -0.817  64.040
 Approx polarizability: 112.615   8.241 108.435   1.521  -0.337  94.978

                      1                      2                      3
                      A                      A                      A
 Frequencies --     86.6623               116.6502               179.3178
 Red. masses --      3.5757                 6.8606                 3.5593
 Frc consts  --      0.0158                 0.0550                 0.0674
 IR Inten    --      3.5694                 1.3881                 2.9515

                      4                      5                      6
                      A                      A                      A
 Frequencies --    257.5171               303.1092               382.6322
 Red. masses --      1.2689                 1.7393                 3.8400
 Frc consts  --      0.0496                 0.0941                 0.3312
 IR Inten    --     94.4097                30.6641                 5.1555

                      7                      8                      9
                      A                      A                      A
 Frequencies --    434.8512               463.7717               531.2220
 Red. masses --      4.2768                 2.1903                 2.9902
 Frc consts  --      0.4765                 0.2776                 0.4972
 IR Inten    --      9.9463                 4.7571                 1.8924

                     10                     11                     12
                      A                      A                      A
 Frequencies --    593.4159               617.1330               770.8081
 Red. masses --      4.0079                 2.6088                 2.9526
 Frc consts  --      0.8315                 0.5854                 1.0336
 IR Inten    --      2.2647                 0.5393                 7.1987

                     13                     14                     15
                      A                      A                      A
 Frequencies --    796.2057               822.3323               857.5431
 Red. masses --      2.6689                 3.0446                 2.4459
 Frc consts  --      0.9969                 1.2130                 1.0597
 IR Inten    --      3.3902                 8.2480                 1.7376

                     16                     17                     18
                      A                      A                      A
 Frequencies --    908.0910               948.6648               966.5976
 Red. masses --      2.0242                 2.1881                 2.2171
 Frc consts  --      0.9835                 1.1602                 1.2204
 IR Inten    --      4.7967                 3.7268                12.5836

                     19                     20                     21
                      A                      A                      A
 Frequencies --   1002.6069              1012.7585              1058.1742
 Red. masses --      2.2402                 1.5396                 2.1379
 Frc consts  --      1.3268                 0.9304                 1.4105
 IR Inten    --     17.5083                 5.0556                 1.4933

                     22                     23                     24
                      A                      A                      A
 Frequencies --   1071.3537              1088.2835              1090.3003
 Red. masses --      2.1534                 2.2526                 1.4634
 Frc consts  --      1.4562                 1.5719                 1.0250
 IR Inten    --     26.3693                42.3127                30.4726

                     25                     26                     27
                      A                      A                      A
 Frequencies --   1115.9861              1160.4175              1172.3925
 Red. masses --      1.4136                 1.2583                 2.1930
 Frc consts  --      1.0373                 0.9983                 1.7759
 IR Inten    --      4.4293                 6.4490                18.3618

                     28                     29                     30
                      A                      A                      A
 Frequencies --   1217.0855              1234.8154              1240.0234
 Red. masses --      1.5020                 1.4064                 1.4173
 Frc consts  --      1.3109                 1.2634                 1.2840
 IR Inten    --      4.3428                 7.0735                 4.0404

                     31                     32                     33
                      A                      A                      A
 Frequencies --   1270.3299              1277.5275              1280.2565
 Red. masses --      1.4520                 1.5793                 1.4402
 Frc consts  --      1.3805                 1.5186                 1.3908
 IR Inten    --     11.5702                10.8212                17.4642

                     34                     35                     36
                      A                      A                      A
 Frequencies --   1299.9835              1318.9810              1412.5574
 Red. masses --      1.5746                 1.5367                 1.3114
 Frc consts  --      1.5678                 1.5751                 1.5417
 IR Inten    --     22.2426                 7.4886                 7.7251

                     37                     38                     39
                      A                      A                      A
 Frequencies --   1481.0267              1492.6248              1538.4822
 Red. masses --      1.4636                 1.1160                 1.0931
 Frc consts  --      1.8914                 1.4649                 1.5244
 IR Inten    --      8.4159                 3.0084                 4.9724

                     40                     41                     42
                      A                      A                      A
 Frequencies --   1560.9575              1867.1352              2984.9715
 Red. masses --      1.0960                12.3250                 1.0652
 Frc consts  --      1.5734                25.3155                 5.5921
 IR Inten    --      2.4283               284.1079                64.2950

                     43                     44                     45
                      A                      A                      A
 Frequencies --   3024.1233              3058.6010              3067.6785
 Red. masses --      1.0940                 1.0862                 1.0602
 Frc consts  --      5.8947                 5.9872                 5.8785
 IR Inten    --     29.1043                44.2071                23.2839

                     46                     47                     48
                      A                      A                      A
 Frequencies --   3077.2460              3112.6757              3116.5475
 Red. masses --      1.0646                 1.1055                 1.0903
 Frc consts  --      5.9399                 6.3107                 6.2392
 IR Inten    --     39.4484                17.0254                42.7222

                     49                     50                     51
                      A                      A                      A
 Frequencies --   3148.3975              3175.6703              3752.4612
 Red. masses --      1.1010                 1.0910                 1.0664
 Frc consts  --      6.4300                 6.4826                 8.8474
 IR Inten    --     27.2145                14.9502                14.3233

 - Thermochemistry -
 -------------------
 Temperature   298.150 Kelvin.  Pressure   1.00000 Atm.
 Atom     1 has atomic number  8 and mass  15.99491

 Molecular mass:   126.06808 amu.
 Principal axes and moments of inertia in atomic units:
                           1         2         3
     Eigenvalues --   594.469831498.976231726.73446
           X            0.99983  -0.01767   0.00498
           Y            0.01768   0.99984  -0.00155
           Z           -0.00495   0.00164   0.99999
 This molecule is an asymmetric top.
 Rotational symmetry number  1.
 Warning -- assumption of classical behavior for rotation
           may cause significant error
 Rotational temperatures (Kelvin)      0.14570     0.05778     0.05016
 Rotational constants (GHZ):           3.03588     1.20398     1.04518
 Zero-point vibrational energy     423591.4 (Joules/Mol)
                                  101.24078 (Kcal/Mol)
 Warning -- explicit consideration of  11 degrees of freedom as
           vibrations may cause significant error
 Vibrational temperatures:    124.69   167.83   258.00   370.51   436.11
          (Kelvin)            550.52   625.65   667.26   764.31   853.79
                              887.92  1109.02  1145.56  1183.15  1233.81
                             1306.54  1364.92  1390.72  1442.53  1457.13
                             1522.48  1541.44  1565.80  1568.70  1605.66
                             1669.58  1686.81  1751.11  1776.62  1784.12
                             1827.72  1838.08  1842.00  1870.39  1897.72
                             2032.36  2130.87  2147.55  2213.53  2245.87
                             2686.39  4294.71  4351.04  4400.64  4413.71
                             4427.47  4478.45  4484.02  4529.84  4569.08
                             5398.95

 Zero-point correction=                           0.161337 (Hartree/Particle)
 Thermal correction to Energy=                    0.169306
 Thermal correction to Enthalpy=                  0.170250
 Thermal correction to Gibbs Free Energy=         0.128578
 Sum of electronic and zero-point Energies=           -422.986700
 Sum of electronic and thermal Energies=              -422.978732
 Sum of electronic and thermal Enthalpies=            -422.977787
 Sum of electronic and thermal Free Energies=         -423.019460

                     E (Thermal)             CV                S
                      KCal/Mol        Cal/Mol-Kelvin    Cal/Mol-Kelvin
 Total                  106.241             30.861             87.707
 Electronic               0.000              0.000              0.000
 Translational            0.889              2.981             40.409
 Rotational               0.889              2.981             28.822
 Vibrational            104.464             24.900             18.477
 Vibration     1          0.601              1.958              3.734
 Vibration     2          0.608              1.936              3.155
 Vibration     3          0.629              1.868              2.336
 Vibration     4          0.667              1.750              1.679
 Vibration     5          0.695              1.668              1.400
 Vibration     6          0.752              1.507              1.029
 Vibration     7          0.795              1.394              0.843
 Vibration     8          0.821              1.330              0.755
 Vibration     9          0.886              1.181              0.584
 Vibration    10          0.951              1.046              0.461
 Vibration    11          0.977              0.996              0.421

 Normal termination of Gaussian 16 at Wed Feb 21 18:43:09 2024.
