 Gaussian 16, Revision A.03,
 Gaussian 16:  EM64M-G16RevA.03 25-Dec-2016

 ---------------------
 # freq b3lyp/6-31g(d)
 ---------------------

 ---------
 good luck
 ---------
 Symbolic Z-matrix:
 Charge =  0 Multiplicity = 1

                         Standard orientation:
 ---------------------------------------------------------------------
 Center     Atomic      Atomic             Coordinates (Angstroms)
 Number     Number       Type             X           Y           Z
 ---------------------------------------------------------------------
      1          8           0        2.932188    0.152110   -0.632166
      2          6           0        2.032837   -0.684407    0.092058
      3          6           0        0.627161   -0.290851   -0.328941
      4          6           0       -0.552888   -0.804617    0.577481
      5          6           0       -0.281405    0.447443    1.480718
      6          6           0        0.098510    1.108158    0.123993
      7          6           0       -1.270304    1.154502   -0.585586
      8          6           0       -1.731727   -0.281355   -0.235026
      9          8           0       -2.762540   -0.837947   -0.532566
     10          1           0        3.835780   -0.127674   -0.421095
     11          1           0        2.181393   -0.575858    1.176455
     12          1           0        2.192943   -1.746934   -0.153424
     13          1           0        0.527132   -0.498614   -1.402200
     14          1           0       -0.625991   -1.824644    0.957105
     15          1           0       -1.128834    0.865935    2.035424
     16          1           0        0.561350    0.307434    2.159619
     17          1           0        0.733551    1.993348    0.068383
     18          1           0       -1.960012    1.903818   -0.180013
     19          1           0       -1.207596    1.296643   -1.670580
 ---------------------------------------------------------------------

 SCF Done:  E(RB3LYP) =  -423.148357002     A.U. after   14 cycles

 The electronic state is 1-A.
 Alpha  occ. eigenvalues --  -19.15032 -19.13545 -10.27072 -10.24064 -10.20418
 Alpha  occ. eigenvalues --  -10.20382 -10.20235 -10.19952 -10.19103  -1.03518
 Alpha  occ. eigenvalues --   -1.02204  -0.89973  -0.74324  -0.70813  -0.67492
 Alpha  occ. eigenvalues --   -0.63081  -0.54426  -0.53258  -0.52117  -0.49488
 Alpha  occ. eigenvalues --   -0.47530  -0.45344  -0.43157  -0.40330  -0.39062
 Alpha  occ. eigenvalues --   -0.38928  -0.38148  -0.36325  -0.33790  -0.32410
 Alpha  occ. eigenvalues --   -0.32056  -0.31496  -0.27419  -0.23240
 Alpha virt. eigenvalues --   -0.00592   0.06348   0.09490   0.10667   0.11972
 Alpha virt. eigenvalues --    0.13678   0.14355   0.14879   0.15710   0.16980
 Alpha virt. eigenvalues --    0.17626   0.18830   0.20705   0.21271   0.23012

 Mulliken charges:
               1
     1  O   -0.617229
     2  C   -0.046555
     3  C   -0.100782
     4  C   -0.177310
     5  C   -0.295093
     6  C   -0.112575
     7  C   -0.346783
     8  C    0.452115
     9  O   -0.453210
    10  H    0.394636
    11  H    0.121786
    12  H    0.126719
    13  H    0.143545
    14  H    0.132940
    15  H    0.146446
    16  H    0.153771
    17  H    0.142443
    18  H    0.165518
    19  H    0.169619
 Sum of Mulliken charges =  -0.00000

 Dipole moment (field-independent basis, Debye):
    X=              3.3466    Y=              0.3295    Z=              1.6221  Tot=              3.7336
 Quadrupole moment (field-independent basis, Debye-Ang):
   XX=            -56.3002   YY=            -52.9365   ZZ=            -53.0915
   XY=             -7.8595   XZ=              0.0828   YZ=             -0.4806

  Exact polarizability:  85.655  -0.380  68.078   2.318  -1.156  65.000
 Approx polarizability: 117.014   5.692 101.002   4.394  -0.558  97.486

                      1                      2                      3
                      A                      A                      A
 Frequencies --     78.3372               143.0306               159.0679
 Red. masses --      5.0369                 4.1935                 4.0272
 Frc consts  --      0.0182                 0.0505                 0.0600
 IR Inten    --      6.8835                 0.2433                 3.4264

                      4                      5                      6
                      A                      A                      A
 Frequencies --    257.7009               303.7513               373.5830
 Red. masses --      1.2061                 1.8634                 5.6626
 Frc consts  --      0.0472                 0.1013                 0.4656
 IR Inten    --    103.9487                19.8809                 4.3296

                      7                      8                      9
                      A                      A                      A
 Frequencies --    430.2107               489.1853               517.0441
 Red. masses --      2.1639                 3.4973                 2.8689
 Frc consts  --      0.2360                 0.4931                 0.4519
 IR Inten    --      0.9805                 8.8876                12.1557

                     10                     11                     12
                      A                      A                      A
 Frequencies --    595.8139               623.6427               767.4034
 Red. masses --      4.3405                 2.4370                 3.0139
 Frc consts  --      0.9078                 0.5584                 1.0457
 IR Inten    --      2.2808                 1.7240                 7.5036

                     13                     14                     15
                      A                      A                      A
 Frequencies --    800.2810               836.7256               845.4151
 Red. masses --      2.7946                 2.4036                 2.8276
 Frc consts  --      1.0545                 0.9915                 1.1907
 IR Inten    --      6.4915                 6.3069                 0.8568

                     16                     17                     18
                      A                      A                      A
 Frequencies --    905.2267               950.8102               967.0191
 Red. masses --      2.1094                 2.0590                 2.4465
 Frc consts  --      1.0184                 1.0967                 1.3479
 IR Inten    --      8.6239                 0.9192                12.6007

                     19                     20                     21
                      A                      A                      A
 Frequencies --    985.1515              1016.2505              1056.8096
 Red. masses --      2.0713                 1.6056                 2.8701
 Frc consts  --      1.1844                 0.9770                 1.8886
 IR Inten    --     11.3397                 5.5525                14.3264

                     22                     23                     24
                      A                      A                      A
 Frequencies --   1077.0070              1086.5071              1093.0343
 Red. masses --      1.5572                 1.9621                 1.7525
 Frc consts  --      1.0643                 1.3647                 1.2336
 IR Inten    --      8.2999                24.3740                45.3855

                     25                     26                     27
                      A                      A                      A
 Frequencies --   1115.7814              1171.8482              1175.9292
 Red. masses --      1.3144                 2.1189                 1.5378
 Frc consts  --      0.9641                 1.7144                 1.2529
 IR Inten    --      6.8198                19.8800                 5.6857

                     28                     29                     30
                      A                      A                      A
 Frequencies --   1199.9746              1237.9509              1242.7727
 Red. masses --      1.2845                 1.5315                 1.3746
 Frc consts  --      1.0897                 1.3828                 1.2509
 IR Inten    --     21.7028                 3.2257                 4.2175

                     31                     32                     33
                      A                      A                      A
 Frequencies --   1271.1258              1277.3827              1279.9523
 Red. masses --      1.4462                 1.6566                 1.4035
 Frc consts  --      1.3768                 1.5926                 1.3547
 IR Inten    --      8.0947                 2.9262                 6.2064

                     34                     35                     36
                      A                      A                      A
 Frequencies --   1301.8986              1317.4072              1415.1338
 Red. masses --      1.5444                 1.5310                 1.3217
 Frc consts  --      1.5423                 1.5655                 1.5595
 IR Inten    --     28.3824                14.2502                 3.9901

                     37                     38                     39
                      A                      A                      A
 Frequencies --   1480.5247              1492.4727              1538.8256
 Red. masses --      1.4708                 1.1078                 1.0937
 Frc consts  --      1.8995                 1.4539                 1.5259
 IR Inten    --      8.7929                 4.0848                 5.3252

                     40                     41                     42
                      A                      A                      A
 Frequencies --   1562.3659              1866.7221              2993.9512
 Red. masses --      1.0954                12.3342                 1.0621
 Frc consts  --      1.5753                25.3234                 5.6091
 IR Inten    --      1.7655               283.7302                60.7946

                     43                     44                     45
                      A                      A                      A
 Frequencies --   3026.0353              3057.7765              3067.6478
 Red. masses --      1.0970                 1.0869                 1.0603
 Frc consts  --      5.9184                 5.9875                 5.8787
 IR Inten    --     26.4595                48.9831                22.5051

                     46                     47                     48
                      A                      A                      A
 Frequencies --   3077.6760              3112.0984              3145.3241
 Red. masses --      1.0649                 1.1053                 1.0958
 Frc consts  --      5.9431                 6.3074                 6.3870
 IR Inten    --     39.6035                16.4943                10.3148

                     49                     50                     51
                      A                      A                      A
 Frequencies --   3149.2364              3152.6714              3751.5976
 Red. masses --      1.0914                 1.0948                 1.0664
 Frc consts  --      6.3773                 6.4113                 8.8433
 IR Inten    --     44.2730                23.5855                14.3215

 - Thermochemistry -
 -------------------
 Temperature   298.150 Kelvin.  Pressure   1.00000 Atm.
 Atom     1 has atomic number  8 and mass  15.99491

 Molecular mass:   126.06808 amu.
 Principal axes and moments of inertia in atomic units:
                           1         2         3
     Eigenvalues --   502.900821679.522581727.84338
           X            0.99961  -0.02755   0.00469
           Y            0.02787   0.99477  -0.09823
           Z           -0.00195   0.09832   0.99515
 This molecule is an asymmetric top.
 Rotational symmetry number  1.
 Warning -- assumption of classical behavior for rotation
           may cause significant error
 Rotational temperatures (Kelvin)      0.17223     0.05157     0.05013
 Rotational constants (GHZ):           3.58866     1.07456     1.04451
 Zero-point vibrational energy     423723.8 (Joules/Mol)
                                  101.27243 (Kcal/Mol)
 Warning -- explicit consideration of  10 degrees of freedom as
           vibrations may cause significant error
 Vibrational temperatures:    112.71   205.79   228.86   370.77   437.03
          (Kelvin)            537.50   618.98   703.83   743.91   857.24
                              897.28  1104.12  1151.43  1203.86  1216.36
                             1302.42  1368.00  1391.32  1417.41  1462.16
                             1520.51  1549.57  1563.24  1572.63  1605.36
                             1686.03  1691.90  1726.50  1781.14  1788.07
                             1828.87  1837.87  1841.57  1873.14  1895.46
                             2036.06  2130.14  2147.34  2214.03  2247.90
                             2685.80  4307.63  4353.79  4399.46  4413.66
                             4428.09  4477.62  4525.42  4531.05  4535.99
                             5397.71

 Zero-point correction=                           0.161388 (Hartree/Particle)
 Thermal correction to Energy=                    0.169357
 Thermal correction to Enthalpy=                  0.170301
 Thermal correction to Gibbs Free Energy=         0.128641
 Sum of electronic and zero-point Energies=           -422.986969
 Sum of electronic and thermal Energies=              -422.979000
 Sum of electronic and thermal Enthalpies=            -422.978056
 Sum of electronic and thermal Free Energies=         -423.019716

                     E (Thermal)             CV                S
                      KCal/Mol        Cal/Mol-Kelvin    Cal/Mol-Kelvin
 Total                  106.273             30.852             87.681
 Electronic               0.000              0.000              0.000
 Translational            0.889              2.981             40.409
 Rotational               0.889              2.981             28.769
 Vibrational            104.495             24.890             18.503
 Vibration     1          0.600              1.964              3.932
 Vibration     2          0.616              1.910              2.763
 Vibration     3          0.621              1.892              2.561
 Vibration     4          0.667              1.750              1.677
 Vibration     5          0.695              1.667              1.396
 Vibration     6          0.745              1.526              1.065
 Vibration     7          0.791              1.404              0.858
 Vibration     8          0.845              1.274              0.686
 Vibration     9          0.872              1.212              0.617
 Vibration    10          0.954              1.041              0.457

 Normal termination of Gaussian 16 at Wed Feb 21 18:41:55 2024.
