 Gaussian 16, Revision A.03,
 Gaussian 16:  EM64M-G16RevA.03 25-Dec-2016

 ---------------------
 # freq b3lyp/6-31g(d)
 ---------------------

 ---------
 good luck
 ---------
 Symbolic Z-matrix:
 Charge =  0 Multiplicity = 1

                         Standard orientation:
 ---------------------------------------------------------------------
 Center     Atomic      Atomic             Coordinates (Angstroms)
 Number     Number       Type             X           Y           Z
 ---------------------------------------------------------------------
      1          8           0        2.709468   -0.129387    0.466029
      2          6           0        2.036749   -0.488593   -0.735694
      3          6           0        0.541235   -0.205518   -0.691424
      4          6           0       -0.307191   -0.705751    0.538921
      5          6           0        0.048110    0.658244    1.225194
      6          6           0        0.003856    1.189947   -0.236289
      7          6           0       -1.497623    1.046987   -0.565132
      8          6           0       -1.699247   -0.376559    0.017971
      9          8           0       -2.711912   -1.036803    0.051956
     10          1           0        3.644084   -0.361830    0.360030
     11          1           0        2.171173   -1.562153   -0.947846
     12          1           0        2.454815    0.065694   -1.593206
     13          1           0        0.160030   -0.538587   -1.668484
     14          1           0       -0.163757   -1.677500    1.012100
     15          1           0       -0.681814    1.068136    1.933304
     16          1           0        1.047187    0.652975    1.653841
     17          1           0        0.502942    2.117512   -0.526728
     18          1           0       -1.736496    1.074351   -1.634875
     19          1           0       -2.133954    1.778376   -0.053299
 ---------------------------------------------------------------------

 SCF Done:  E(RB3LYP) =  -423.146822237     A.U. after   14 cycles

 The electronic state is 1-A.
 Alpha  occ. eigenvalues --  -19.15624 -19.13108 -10.26614 -10.24524 -10.20625
 Alpha  occ. eigenvalues --  -10.20000 -10.19620 -10.18841 -10.18553  -1.03073
 Alpha  occ. eigenvalues --   -1.02835  -0.89359  -0.74332  -0.70756  -0.66885
 Alpha  occ. eigenvalues --   -0.62524  -0.54270  -0.53372  -0.52166  -0.48612
 Alpha  occ. eigenvalues --   -0.45893  -0.45264  -0.44854  -0.40001  -0.39238
 Alpha  occ. eigenvalues --   -0.38366  -0.36989  -0.36874  -0.33318  -0.31900
 Alpha  occ. eigenvalues --   -0.31492  -0.31141  -0.27672  -0.22750
 Alpha virt. eigenvalues --   -0.00126   0.05766   0.10287   0.11506   0.12529
 Alpha virt. eigenvalues --    0.13713   0.14402   0.15049   0.16725   0.17485
 Alpha virt. eigenvalues --    0.18115   0.19033   0.19481   0.21118   0.22417

 Mulliken charges:
               1
     1  O   -0.614976
     2  C   -0.037606
     3  C   -0.118156
     4  C   -0.168386
     5  C   -0.287625
     6  C   -0.124716
     7  C   -0.345813
     8  C    0.448418
     9  O   -0.456502
    10  H    0.398852
    11  H    0.129294
    12  H    0.126734
    13  H    0.131349
    14  H    0.132737
    15  H    0.136822
    16  H    0.196499
    17  H    0.126207
    18  H    0.161528
    19  H    0.165341
 Sum of Mulliken charges =   0.00000

 Dipole moment (field-independent basis, Debye):
    X=              3.8934    Y=              0.9701    Z=             -1.1858  Tot=              4.1840
 Quadrupole moment (field-independent basis, Debye-Ang):
   XX=            -54.5445   YY=            -53.7562   ZZ=            -52.0301
   XY=             -7.5949   XZ=             -1.8762   YZ=              0.2976

  Exact polarizability:  85.811  -0.208  67.830  -0.298  -0.089  65.846
 Approx polarizability: 116.862   6.411 101.271   0.431   0.387  98.185

                      1                      2                      3
                      A                      A                      A
 Frequencies --     74.1690               129.7388               232.3335
 Red. masses --      4.3399                 5.4441                 1.9956
 Frc consts  --      0.0141                 0.0540                 0.0635
 IR Inten    --      3.4663                 3.6828                34.8536

                      4                      5                      6
                      A                      A                      A
 Frequencies --    247.3608               293.8657               313.2048
 Red. masses --      2.0419                 1.6412                 3.6829
 Frc consts  --      0.0736                 0.0835                 0.2129
 IR Inten    --     43.1787                52.0831                 1.8234

                      7                      8                      9
                      A                      A                      A
 Frequencies --    435.9811               464.3182               576.0824
 Red. masses --      2.0779                 3.8064                 5.4344
 Frc consts  --      0.2327                 0.4835                 1.0626
 IR Inten    --      2.5143                 8.5457                 7.5459

                     10                     11                     12
                      A                      A                      A
 Frequencies --    610.1161               625.2013               769.4006
 Red. masses --      2.7136                 2.8139                 2.9775
 Frc consts  --      0.5951                 0.6480                 1.0385
 IR Inten    --      1.8588                 1.6895                 8.5858

                     13                     14                     15
                      A                      A                      A
 Frequencies --    814.6166               835.4275               848.0634
 Red. masses --      2.9275                 3.3083                 3.3882
 Frc consts  --      1.1446                 1.3604                 1.4357
 IR Inten    --      6.4466                17.5255                 5.7622

                     16                     17                     18
                      A                      A                      A
 Frequencies --    891.8092               944.6301               958.4768
 Red. masses --      2.1854                 1.9912                 2.8892
 Frc consts  --      1.0241                 1.0468                 1.5638
 IR Inten    --      3.1564                 1.8884                13.6683

                     19                     20                     21
                      A                      A                      A
 Frequencies --    970.1612              1017.2154              1047.2747
 Red. masses --      1.6005                 1.6822                 2.4161
 Frc consts  --      0.8876                 1.0255                 1.5613
 IR Inten    --      0.9078                 2.4102                26.7388

                     22                     23                     24
                      A                      A                      A
 Frequencies --   1059.2125              1088.8291              1109.8316
 Red. masses --      1.6629                 1.3421                 1.3627
 Frc consts  --      1.0992                 0.9374                 0.9889
 IR Inten    --      3.0149                10.6419                22.6352

                     25                     26                     27
                      A                      A                      A
 Frequencies --   1124.5190              1167.5556              1181.5179
 Red. masses --      1.7687                 2.2801                 1.6478
 Frc consts  --      1.3178                 1.8313                 1.3553
 IR Inten    --     21.8193                15.4140                25.6546

                     28                     29                     30
                      A                      A                      A
 Frequencies --   1222.5792              1228.8613              1247.5025
 Red. masses --      1.5352                 1.2974                 1.4410
 Frc consts  --      1.3520                 1.1543                 1.3213
 IR Inten    --      1.8834                18.5724                 2.5104

                     31                     32                     33
                      A                      A                      A
 Frequencies --   1258.6377              1281.7886              1283.9967
 Red. masses --      1.4666                 1.4729                 1.5975
 Frc consts  --      1.3689                 1.4258                 1.5517
 IR Inten    --     39.5797                 2.4866                 0.1974

                     34                     35                     36
                      A                      A                      A
 Frequencies --   1310.5323              1325.6349              1435.2660
 Red. masses --      1.5549                 1.3247                 1.4634
 Frc consts  --      1.5734                 1.3716                 1.7761
 IR Inten    --     14.3152                 0.5229                 7.6522

                     37                     38                     39
                      A                      A                      A
 Frequencies --   1475.2305              1492.2946              1536.3048
 Red. masses --      1.4089                 1.0975                 1.0940
 Frc consts  --      1.8066                 1.4400                 1.5213
 IR Inten    --     11.6712                 4.5379                 5.2281

                     40                     41                     42
                      A                      A                      A
 Frequencies --   1548.3592              1863.4250              2976.4439
 Red. masses --      1.1024                12.3262                 1.0569
 Frc consts  --      1.5571                25.2175                 5.5168
 IR Inten    --      9.3503               286.3529                55.7998

                     43                     44                     45
                      A                      A                      A
 Frequencies --   3004.9563              3023.8508              3064.1220
 Red. masses --      1.1066                 1.0834                 1.0599
 Frc consts  --      5.8872                 5.8364                 5.8630
 IR Inten    --     59.8112                54.5823                19.1727

                     46                     47                     48
                      A                      A                      A
 Frequencies --   3070.9044              3108.7995              3122.6784
 Red. masses --      1.0689                 1.1053                 1.0901
 Frc consts  --      5.9390                 6.2940                 6.2630
 IR Inten    --     43.8665                17.9477                40.8716

                     49                     50                     51
                      A                      A                      A
 Frequencies --   3156.9343              3203.8026              3754.7443
 Red. masses --      1.0908                 1.0964                 1.0665
 Frc consts  --      6.4049                 6.6305                 8.8584
 IR Inten    --     23.3829                 0.8021                17.5679

 - Thermochemistry -
 -------------------
 Temperature   298.150 Kelvin.  Pressure   1.00000 Atm.
 Atom     1 has atomic number  8 and mass  15.99491

 Molecular mass:   126.06808 amu.
 Principal axes and moments of inertia in atomic units:
                           1         2         3
     Eigenvalues --   494.159921583.696271659.06662
           X            0.99956  -0.02867  -0.00704
           Y            0.02887   0.99912   0.03052
           Z            0.00616  -0.03071   0.99951
 This molecule is an asymmetric top.
 Rotational symmetry number  1.
 Warning -- assumption of classical behavior for rotation
           may cause significant error
 Rotational temperatures (Kelvin)      0.17528     0.05469     0.05221
 Rotational constants (GHZ):           3.65214     1.13958     1.08781
 Zero-point vibrational energy     423648.9 (Joules/Mol)
                                  101.25451 (Kcal/Mol)
 Warning -- explicit consideration of  10 degrees of freedom as
           vibrations may cause significant error
 Vibrational temperatures:    106.71   186.67   334.28   355.90   422.81
          (Kelvin)            450.63   627.28   668.05   828.85   877.82
                              899.53  1107.00  1172.05  1201.99  1220.17
                             1283.11  1359.11  1379.03  1395.85  1463.55
                             1506.79  1523.97  1566.58  1596.80  1617.93
                             1679.85  1699.94  1759.02  1768.06  1794.88
                             1810.90  1844.21  1847.38  1885.56  1907.29
                             2065.03  2122.53  2147.08  2210.40  2227.74
                             2681.05  4282.44  4323.46  4350.65  4408.59
                             4418.35  4472.87  4492.84  4542.12  4609.56
                             5402.24

 Zero-point correction=                           0.161359 (Hartree/Particle)
 Thermal correction to Energy=                    0.169308
 Thermal correction to Enthalpy=                  0.170252
 Thermal correction to Gibbs Free Energy=         0.128693
 Sum of electronic and zero-point Energies=           -422.985463
 Sum of electronic and thermal Energies=              -422.977515
 Sum of electronic and thermal Enthalpies=            -422.976571
 Sum of electronic and thermal Free Energies=         -423.018129

                     E (Thermal)             CV                S
                      KCal/Mol        Cal/Mol-Kelvin    Cal/Mol-Kelvin
 Total                  106.242             30.811             87.468
 Electronic               0.000              0.000              0.000
 Translational            0.889              2.981             40.409
 Rotational               0.889              2.981             28.653
 Vibrational            104.465             24.850             18.406
 Vibration     1          0.599              1.966              4.040
 Vibration     2          0.612              1.924              2.950
 Vibration     3          0.653              1.791              1.861
 Vibration     4          0.661              1.767              1.749
 Vibration     5          0.689              1.685              1.452
 Vibration     6          0.701              1.648              1.345
 Vibration     7          0.796              1.392              0.839
 Vibration     8          0.822              1.329              0.754
 Vibration     9          0.932              1.083              0.493
 Vibration    10          0.969              1.010              0.433

 Normal termination of Gaussian 16 at Wed Feb 21 18:40:41 2024.
