 Gaussian 16, Revision A.03,
 Gaussian 16:  EM64M-G16RevA.03 25-Dec-2016

 ---------------------
 # freq b3lyp/6-31g(d)
 ---------------------

 ---------
 good luck
 ---------
 Symbolic Z-matrix:
 Charge =  0 Multiplicity = 1

                         Standard orientation:
 ---------------------------------------------------------------------
 Center     Atomic      Atomic             Coordinates (Angstroms)
 Number     Number       Type             X           Y           Z
 ---------------------------------------------------------------------
      1          8           0        2.076047   -1.554910   -0.258951
      2          6           0        1.331746   -0.627304   -0.029845
      3          6           0       -0.025083   -0.670382    0.671925
      4          6           0       -0.045452    0.715318    1.356705
      5          6           0       -1.081297   -0.490403   -0.473348
      6          6           0       -2.501463   -0.859416   -0.032309
      7          6           0       -0.916159    1.022067   -0.851857
      8          6           0        0.238059    1.507197    0.057027
      9          6           0        1.551948    0.848903   -0.416187
     10          1           0       -0.168913   -1.562206    1.284779
     11          1           0       -1.011765    0.960341    1.809728
     12          1           0        0.735143    0.833319    2.117497
     13          1           0       -0.814904   -1.131439   -1.322314
     14          1           0       -2.574704   -1.923327    0.220930
     15          1           0       -3.219423   -0.655256   -0.835837
     16          1           0       -2.815406   -0.281454    0.845185
     17          1           0       -0.698130    1.166394   -1.915853
     18          1           0       -1.836429    1.576257   -0.630798
     19          1           0        0.296461    2.593879    0.163010
     20          1           0        1.762593    0.951780   -1.486504
     21          1           0        2.423309    1.235117    0.129121
 ---------------------------------------------------------------------

 SCF Done:  E(RB3LYP) =  -387.296309492     A.U. after   13 cycles

 The electronic state is 1-A.
 Alpha  occ. eigenvalues --  -19.13256 -10.26647 -10.20067 -10.19806 -10.19199
 Alpha  occ. eigenvalues --  -10.19127 -10.18913 -10.18731 -10.18183  -1.03174
 Alpha  occ. eigenvalues --   -0.87837  -0.76959  -0.72440  -0.70146  -0.66903
 Alpha  occ. eigenvalues --   -0.56856  -0.56305  -0.52687  -0.50044  -0.46828
 Alpha  occ. eigenvalues --   -0.46299  -0.42098  -0.40748  -0.40339  -0.40068
 Alpha  occ. eigenvalues --   -0.38498  -0.36763  -0.35932  -0.35551  -0.33654
 Alpha  occ. eigenvalues --   -0.32243  -0.31964  -0.31227  -0.23035
 Alpha virt. eigenvalues --   -0.00898   0.07667   0.10680   0.11546   0.13707
 Alpha virt. eigenvalues --    0.14336   0.14979   0.15354   0.16167   0.16750
 Alpha virt. eigenvalues --    0.16972   0.17500   0.19778   0.19975   0.20989

 Mulliken charges:
               1
     1  O   -0.456872
     2  C    0.450331
     3  C   -0.170743
     4  C   -0.288981
     5  C   -0.086953
     6  C   -0.454138
     7  C   -0.277720
     8  C   -0.117966
     9  C   -0.350657
    10  H    0.136512
    11  H    0.144007
    12  H    0.144864
    13  H    0.144646
    14  H    0.150015
    15  H    0.148590
    16  H    0.144353
    17  H    0.139536
    18  H    0.140081
    19  H    0.126954
    20  H    0.165095
    21  H    0.169044
 Sum of Mulliken charges =  -0.00000

 Dipole moment (field-independent basis, Debye):
    X=             -2.0471    Y=              2.2422    Z=              0.4031  Tot=              3.0627
 Quadrupole moment (field-independent basis, Debye-Ang):
   XX=            -58.8536   YY=            -57.7944   ZZ=            -53.2927
   XY=              5.9420   XZ=              1.1368   YZ=             -0.7145

  Exact polarizability:  86.609   0.021  78.851  -0.859  -0.306  70.724
 Approx polarizability: 117.915  -7.478 116.870  -2.848   1.880 105.258

                      1                      2                      3
                      A                      A                      A
 Frequencies --    114.5558               140.3772               241.5420
 Red. masses --      3.0402                 3.6613                 1.0997
 Frc consts  --      0.0235                 0.0425                 0.0378
 IR Inten    --      2.8850                 1.5832                 0.0596

                      4                      5                      6
                      A                      A                      A
 Frequencies --    280.3267               352.0666               403.8604
 Red. masses --      2.2097                 2.5483                 2.1692
 Frc consts  --      0.1023                 0.1861                 0.2085
 IR Inten    --      0.2707                 0.0510                 0.9886

                      7                      8                      9
                      A                      A                      A
 Frequencies --    431.2724               481.4560               548.9821
 Red. masses --      2.4678                 2.7878                 3.5298
 Frc consts  --      0.2704                 0.3807                 0.6268
 IR Inten    --      2.6980                 6.1481                 1.1902

                     10                     11                     12
                      A                      A                      A
 Frequencies --    585.2541               687.0236               767.5060
 Red. masses --      2.5126                 3.6495                 4.9219
 Frc consts  --      0.5071                 1.0149                 1.7082
 IR Inten    --      1.0294                 0.3124                 5.9657

                     13                     14                     15
                      A                      A                      A
 Frequencies --    794.6491               821.8739               853.9303
 Red. masses --      2.9493                 2.7632                 2.6064
 Frc consts  --      1.0973                 1.0997                 1.1198
 IR Inten    --      3.7713                 1.3750                 1.9047

                     16                     17                     18
                      A                      A                      A
 Frequencies --    902.5748               919.7785               925.5220
 Red. masses --      1.5801                 2.6815                 2.1186
 Frc consts  --      0.7584                 1.3366                 1.0693
 IR Inten    --      0.3577                 9.1703                 1.4781

                     19                     20                     21
                      A                      A                      A
 Frequencies --    947.7803               965.1913               995.7236
 Red. masses --      2.0357                 2.0514                 1.4662
 Frc consts  --      1.0774                 1.1260                 0.8565
 IR Inten    --      2.1502                 0.4802                 0.9524

                     22                     23                     24
                      A                      A                      A
 Frequencies --   1025.9260              1049.3919              1071.5509
 Red. masses --      1.6161                 1.6114                 1.4641
 Frc consts  --      1.0022                 1.0455                 0.9905
 IR Inten    --     10.1421                 6.2314                 9.0814

                     25                     26                     27
                      A                      A                      A
 Frequencies --   1118.2082              1136.2846              1158.8207
 Red. masses --      1.8353                 1.1754                 1.3649
 Frc consts  --      1.3520                 0.8942                 1.0799
 IR Inten    --      0.7469                 1.6722                 9.3823

                     28                     29                     30
                      A                      A                      A
 Frequencies --   1185.7025              1197.4135              1217.7319
 Red. masses --      2.1378                 1.8392                 1.4793
 Frc consts  --      1.7708                 1.5537                 1.2924
 IR Inten    --     27.7476                 4.7613                 1.3707

                     31                     32                     33
                      A                      A                      A
 Frequencies --   1253.1935              1283.5760              1291.1070
 Red. masses --      1.5711                 1.5184                 1.5528
 Frc consts  --      1.4538                 1.4740                 1.5251
 IR Inten    --      1.2609                 2.8677                 1.1310

                     34                     35                     36
                      A                      A                      A
 Frequencies --   1312.1456              1341.7361              1346.6065
 Red. masses --      1.3820                 1.5595                 1.6474
 Frc consts  --      1.4019                 1.6542                 1.7600
 IR Inten    --      0.7533                 0.2449                 6.5700

                     37                     38                     39
                      A                      A                      A
 Frequencies --   1361.0492              1396.9998              1437.9757
 Red. masses --      1.4792                 1.3662                 1.2336
 Frc consts  --      1.6145                 1.5710                 1.5029
 IR Inten    --      3.8677                 4.0031                 1.6561

                     40                     41                     42
                      A                      A                      A
 Frequencies --   1481.0378              1521.4507              1526.6329
 Red. masses --      1.0907                 1.0752                 1.0499
 Frc consts  --      1.4096                 1.4665                 1.4417
 IR Inten    --      7.8143                 3.1514                 3.7411

                     43                     44                     45
                      A                      A                      A
 Frequencies --   1528.9337              1542.6410              1849.5489
 Red. masses --      1.0620                 1.0946                12.3362
 Frc consts  --      1.4626                 1.5347                24.8636
 IR Inten    --      1.1993                 5.1948               242.5356

                     46                     47                     48
                      A                      A                      A
 Frequencies --   3041.8346              3052.8535              3054.7943
 Red. masses --      1.0356                 1.0771                 1.0632
 Frc consts  --      5.6458                 5.9144                 5.8455
 IR Inten    --     22.1364                18.5471                14.0576

                     49                     50                     51
                      A                      A                      A
 Frequencies --   3055.9580              3067.1947              3097.4980
 Red. masses --      1.0695                 1.0602                 1.1048
 Frc consts  --      5.8848                 5.8763                 6.2451
 IR Inten    --     31.4239                19.4780                15.6912

                     52                     53                     54
                      A                      A                      A
 Frequencies --   3105.2930              3107.2573              3110.3373
 Red. masses --      1.1008                 1.1024                 1.0887
 Frc consts  --      6.2538                 6.2709                 6.2052
 IR Inten    --     10.5697                56.7904                39.8857

                     55                     56                     57
                      A                      A                      A
 Frequencies --   3111.6108              3116.2213              3136.9315
 Red. masses --      1.1046                 1.1033                 1.0889
 Frc consts  --      6.3014                 6.3123                 6.3134
 IR Inten    --     13.3654                49.0598                20.5152

 - Thermochemistry -
 -------------------
 Temperature   298.150 Kelvin.  Pressure   1.00000 Atm.
 Atom     1 has atomic number  8 and mass  15.99491

 Molecular mass:   124.08882 amu.
 Principal axes and moments of inertia in atomic units:
                           1         2         3
     Eigenvalues --   707.437651146.191251416.63470
           X            0.99660   0.08236   0.00194
           Y           -0.08232   0.99649  -0.01493
           Z           -0.00317   0.01472   0.99989
 This molecule is an asymmetric top.
 Rotational symmetry number  1.
 Warning -- assumption of classical behavior for rotation
           may cause significant error
 Rotational temperatures (Kelvin)      0.12243     0.07557     0.06114
 Rotational constants (GHZ):           2.55110     1.57456     1.27396
 Zero-point vibrational energy     489599.8 (Joules/Mol)
                                  117.01716 (Kcal/Mol)
 Warning -- explicit consideration of  10 degrees of freedom as
           vibrations may cause significant error
 Vibrational temperatures:    164.82   201.97   347.53   403.33   506.55
          (Kelvin)            581.07   620.50   692.71   789.86   842.05
                              988.47  1104.27  1143.32  1182.49  1228.62
                             1298.60  1323.36  1331.62  1363.64  1388.69
                             1432.62  1476.08  1509.84  1541.72  1608.85
                             1634.86  1667.28  1705.96  1722.81  1752.04
                             1803.07  1846.78  1857.62  1887.88  1930.46
                             1937.47  1958.25  2009.97  2068.93  2130.88
                             2189.03  2196.48  2199.79  2219.52  2661.09
                             4376.52  4392.38  4395.17  4396.84  4413.01
                             4456.61  4467.82  4470.65  4475.08  4476.91
                             4483.55  4513.34

 Zero-point correction=                           0.186479 (Hartree/Particle)
 Thermal correction to Energy=                    0.194183
 Thermal correction to Enthalpy=                  0.195127
 Thermal correction to Gibbs Free Energy=         0.154494
 Sum of electronic and zero-point Energies=           -387.109831
 Sum of electronic and thermal Energies=              -387.102126
 Sum of electronic and thermal Enthalpies=            -387.101182
 Sum of electronic and thermal Free Energies=         -387.141816

                     E (Thermal)             CV                S
                      KCal/Mol        Cal/Mol-Kelvin    Cal/Mol-Kelvin
 Total                  121.852             31.220             85.521
 Electronic               0.000              0.000              0.000
 Translational            0.889              2.981             40.361
 Rotational               0.889              2.981             28.531
 Vibrational            120.074             25.259             16.628
 Vibration     1          0.607              1.937              3.190
 Vibration     2          0.615              1.913              2.799
 Vibration     3          0.658              1.777              1.791
 Vibration     4          0.680              1.710              1.532
 Vibration     5          0.729              1.571              1.157
 Vibration     6          0.769              1.462              0.949
 Vibration     7          0.792              1.402              0.855
 Vibration     8          0.838              1.291              0.706
 Vibration     9          0.904              1.142              0.546
 Vibration    10          0.942              1.063              0.476

 Normal termination of Gaussian 16 at Wed Feb 21 18:33:32 2024.
