 Gaussian 16, Revision A.03,
 Gaussian 16:  EM64M-G16RevA.03 25-Dec-2016

 ---------------------
 # freq b3lyp/6-31g(d)
 ---------------------

 ---------
 good luck
 ---------
 Symbolic Z-matrix:
 Charge =  0 Multiplicity = 1

                         Standard orientation:
 ---------------------------------------------------------------------
 Center     Atomic      Atomic             Coordinates (Angstroms)
 Number     Number       Type             X           Y           Z
 ---------------------------------------------------------------------
      1          8           0       -1.966800    1.600319    0.198849
      2          6           0       -1.037651    0.903069   -0.147730
      3          6           0       -1.160226   -0.555216   -0.628881
      4          6           0       -2.100565   -1.375119    0.265289
      5          6           0        0.302916   -1.054285   -0.730808
      6          6           0        1.202574   -0.025446    0.028462
      7          6           0        1.268272   -0.368073    1.529938
      8          6           0        2.622109    0.019836   -0.550168
      9          6           0        0.434787    1.302206   -0.166145
     10          1           0       -1.614890   -0.506822   -1.628779
     11          1           0       -2.282776   -2.365242   -0.166445
     12          1           0       -3.059071   -0.858173    0.372789
     13          1           0       -1.679953   -1.518143    1.267017
     14          1           0        0.426259   -2.065324   -0.325222
     15          1           0        0.613178   -1.096290   -1.782124
     16          1           0        1.730816   -1.349960    1.686518
     17          1           0        0.273942   -0.390596    1.991485
     18          1           0        1.863967    0.375344    2.073562
     19          1           0        3.116420   -0.954960   -0.452811
     20          1           0        3.241959    0.759138   -0.028277
     21          1           0        2.609190    0.283502   -1.614759
     22          1           0        0.650668    1.726439   -1.159386
     23          1           0        0.651395    2.076710    0.575894
 ---------------------------------------------------------------------

 SCF Done:  E(RB3LYP) =  -388.514895578     A.U. after   13 cycles

 The electronic state is 1-A.
 Alpha  occ. eigenvalues --  -19.13509 -10.26729 -10.20562 -10.19480 -10.18703
 Alpha  occ. eigenvalues --  -10.18592 -10.17988 -10.17965 -10.17930  -1.03403
 Alpha  occ. eigenvalues --   -0.85027  -0.77456  -0.71982  -0.69085  -0.68279
 Alpha  occ. eigenvalues --   -0.61955  -0.54569  -0.52339  -0.47514  -0.46410
 Alpha  occ. eigenvalues --   -0.44197  -0.44105  -0.42357  -0.41888  -0.40022
 Alpha  occ. eigenvalues --   -0.38821  -0.38068  -0.37148  -0.36709  -0.35509
 Alpha  occ. eigenvalues --   -0.33334  -0.32876  -0.32231  -0.31253  -0.23426
 Alpha virt. eigenvalues --   -0.01436   0.07336   0.10889   0.11411   0.12815
 Alpha virt. eigenvalues --    0.13179   0.14130   0.15269   0.15776   0.16624
 Alpha virt. eigenvalues --    0.17195   0.18221   0.19143   0.19635   0.20452

 Mulliken charges:
               1
     1  O   -0.454141
     2  C    0.441114
     3  C   -0.162076
     4  C   -0.452577
     5  C   -0.292926
     6  C    0.091990
     7  C   -0.455409
     8  C   -0.452666
     9  C   -0.353181
    10  H    0.159158
    11  H    0.145399
    12  H    0.171006
    13  H    0.149170
    14  H    0.140972
    15  H    0.135163
    16  H    0.143983
    17  H    0.150587
    18  H    0.145587
    19  H    0.142968
    20  H    0.143703
    21  H    0.138533
    22  H    0.160066
    23  H    0.163577
 Sum of Mulliken charges =  -0.00000

 Dipole moment (field-independent basis, Debye):
    X=              2.1193    Y=             -1.6617    Z=             -0.7821  Tot=              2.8044
 Quadrupole moment (field-independent basis, Debye-Ang):
   XX=            -60.9806   YY=            -58.9326   ZZ=            -54.9096
   XY=              5.4281   XZ=              1.5675   YZ=             -0.9418

  Exact polarizability:  91.980   0.549  80.854  -0.971   1.486  73.352
 Approx polarizability: 120.987  -5.661 117.096  -3.507   4.150 107.984

                      1                      2                      3
                      A                      A                      A
 Frequencies --     67.1850               105.9125               216.5603
 Red. masses --      3.4807                 2.7265                 1.1134
 Frc consts  --      0.0093                 0.0180                 0.0308
 IR Inten    --      2.7604                 0.4194                 0.2995

                      4                      5                      6
                      A                      A                      A
 Frequencies --    226.9553               243.0901               256.9173
 Red. masses --      1.8739                 1.0646                 1.9813
 Frc consts  --      0.0569                 0.0371                 0.0771
 IR Inten    --      0.4741                 0.0715                 3.3514

                      7                      8                      9
                      A                      A                      A
 Frequencies --    296.3477               332.3438               339.4884
 Red. masses --      1.3812                 2.2404                 2.8222
 Frc consts  --      0.0715                 0.1458                 0.1916
 IR Inten    --      0.5791                 0.1078                 0.7486

                     10                     11                     12
                      A                      A                      A
 Frequencies --    375.1912               409.4868               470.8671
 Red. masses --      2.1919                 1.7957                 2.8443
 Frc consts  --      0.1818                 0.1774                 0.3716
 IR Inten    --      0.9475                 0.1010                 4.9464

                     13                     14                     15
                      A                      A                      A
 Frequencies --    552.6474               564.3777               649.5137
 Red. masses --      3.8234                 3.4514                 3.6706
 Frc consts  --      0.6880                 0.6477                 0.9124
 IR Inten    --      3.3335                 0.3326                 1.2068

                     16                     17                     18
                      A                      A                      A
 Frequencies --    748.3268               771.9549               879.0967
 Red. masses --      3.0936                 3.0342                 2.0291
 Frc consts  --      1.0207                 1.0653                 0.9239
 IR Inten    --      5.0925                 0.0696                 3.0654

                     19                     20                     21
                      A                      A                      A
 Frequencies --    901.6506               917.2157               930.0382
 Red. masses --      2.0581                 1.7502                 1.9937
 Frc consts  --      0.9858                 0.8675                 1.0160
 IR Inten    --      1.9022                 1.4728                 0.7530

                     22                     23                     24
                      A                      A                      A
 Frequencies --    959.6678               974.6632              1019.2084
 Red. masses --      1.4141                 1.7349                 1.2383
 Frc consts  --      0.7673                 0.9710                 0.7579
 IR Inten    --      0.0777                 3.2944                 1.5334

                     25                     26                     27
                      A                      A                      A
 Frequencies --   1038.7840              1079.2721              1094.3402
 Red. masses --      1.8959                 1.4505                 1.4769
 Frc consts  --      1.2054                 0.9955                 1.0421
 IR Inten    --      8.3547                 1.5061                 1.3669

                     28                     29                     30
                      A                      A                      A
 Frequencies --   1138.4431              1185.5823              1208.1708
 Red. masses --      2.0883                 2.3588                 1.7507
 Frc consts  --      1.5946                 1.9534                 1.5057
 IR Inten    --     29.4853                26.0288                 7.6143

                     31                     32                     33
                      A                      A                      A
 Frequencies --   1222.7119              1254.8570              1291.9362
 Red. masses --      1.7553                 1.9070                 1.6458
 Frc consts  --      1.5461                 1.7693                 1.6185
 IR Inten    --      5.6128                 6.8731                 1.3095

                     34                     35                     36
                      A                      A                      A
 Frequencies --   1300.6023              1323.8883              1348.2584
 Red. masses --      1.9021                 1.8178                 1.4640
 Frc consts  --      1.8957                 1.8772                 1.5680
 IR Inten    --     18.1792                 1.8910                 3.8407

                     37                     38                     39
                      A                      A                      A
 Frequencies --   1363.6918              1429.5529              1432.5666
 Red. masses --      1.6428                 1.2416                 1.2234
 Frc consts  --      1.7999                 1.4949                 1.4793
 IR Inten    --      1.8164                 1.0184                 9.0811

                     40                     41                     42
                      A                      A                      A
 Frequencies --   1450.2606              1482.2768              1513.4599
 Red. masses --      1.2198                 1.0932                 1.0503
 Frc consts  --      1.5116                 1.4152                 1.4174
 IR Inten    --      2.4039                 7.7965                 0.1026

                     43                     44                     45
                      A                      A                      A
 Frequencies --   1516.6156              1526.2381              1528.6523
 Red. masses --      1.0606                 1.0549                 1.0497
 Frc consts  --      1.4373                 1.4478                 1.4452
 IR Inten    --      2.0016                 4.0807                 4.7394

                     46                     47                     48
                      A                      A                      A
 Frequencies --   1531.7245              1535.8499              1538.4859
 Red. masses --      1.0649                 1.0569                 1.0539
 Frc consts  --      1.4720                 1.4688                 1.4697
 IR Inten    --      3.6813                 3.5028                 6.7661

                     49                     50                     51
                      A                      A                      A
 Frequencies --   1838.4386              3021.0652              3026.2928
 Red. masses --     12.3879                 1.0691                 1.0812
 Frc consts  --     24.6686                 5.7490                 5.8343
 IR Inten    --    191.8585                 8.7738                15.1377

                     52                     53                     54
                      A                      A                      A
 Frequencies --   3035.0678              3041.5771              3051.9758
 Red. masses --      1.0353                 1.0376                 1.0536
 Frc consts  --      5.6189                 5.6555                 5.7822
 IR Inten    --     28.0750                20.3571                30.4036

                     55                     56                     57
                      A                      A                      A
 Frequencies --   3055.1881              3089.9737              3100.7701
 Red. masses --      1.0427                 1.1043                 1.1023
 Frc consts  --      5.7346                 6.2121                 6.2443
 IR Inten    --     21.4962                17.1466                12.1254

                     58                     59                     60
                      A                      A                      A
 Frequencies --   3104.4314              3107.8031              3110.1308
 Red. masses --      1.1025                 1.1015                 1.1020
 Frc consts  --      6.2600                 6.2685                 6.2806
 IR Inten    --     26.0456                54.4965                41.8835

                     61                     62                     63
                      A                      A                      A
 Frequencies --   3116.5601              3120.0751              3136.3471
 Red. masses --      1.0936                 1.1024                 1.1024
 Frc consts  --      6.2586                 6.3231                 6.3890
 IR Inten    --     19.0750                30.9798                15.7212

 - Thermochemistry -
 -------------------
 Temperature   298.150 Kelvin.  Pressure   1.00000 Atm.
 Atom     1 has atomic number  8 and mass  15.99491

 Molecular mass:   126.10447 amu.
 Principal axes and moments of inertia in atomic units:
                           1         2         3
     Eigenvalues --   734.153751394.478441640.08918
           X            0.99841   0.05628  -0.00178
           Y           -0.05631   0.99816  -0.02264
           Z            0.00050   0.02270   0.99974
 This molecule is an asymmetric top.
 Rotational symmetry number  1.
 Warning -- assumption of classical behavior for rotation
           may cause significant error
 Rotational temperatures (Kelvin)      0.11798     0.06211     0.05281
 Rotational constants (GHZ):           2.45826     1.29421     1.10039
 Zero-point vibrational energy     541313.9 (Joules/Mol)
                                  129.37714 (Kcal/Mol)
 Warning -- explicit consideration of  14 degrees of freedom as
           vibrations may cause significant error
 Vibrational temperatures:     96.66   152.38   311.58   326.54   349.75
          (Kelvin)            369.65   426.38   478.17   488.45   539.82
                              589.16   677.47   795.14   812.01   934.51
                             1076.68  1110.67  1264.82  1297.27  1319.67
                             1338.12  1380.75  1402.32  1466.41  1494.58
                             1552.83  1574.51  1637.97  1705.79  1738.29
                             1759.21  1805.46  1858.81  1871.28  1904.78
                             1939.84  1962.05  2056.81  2061.14  2086.60
                             2132.67  2177.53  2182.07  2195.92  2199.39
                             2203.81  2209.75  2213.54  2645.10  4346.64
                             4354.16  4366.79  4376.15  4391.11  4395.73
                             4445.78  4461.32  4466.58  4471.44  4474.78
                             4484.03  4489.09  4512.50

 Zero-point correction=                           0.206176 (Hartree/Particle)
 Thermal correction to Energy=                    0.215908
 Thermal correction to Enthalpy=                  0.216852
 Thermal correction to Gibbs Free Energy=         0.172045
 Sum of electronic and zero-point Energies=           -388.308720
 Sum of electronic and thermal Energies=              -388.298987
 Sum of electronic and thermal Enthalpies=            -388.298043
 Sum of electronic and thermal Free Energies=         -388.342850

                     E (Thermal)             CV                S
                      KCal/Mol        Cal/Mol-Kelvin    Cal/Mol-Kelvin
 Total                  135.484             37.438             94.304
 Electronic               0.000              0.000              0.000
 Translational            0.889              2.981             40.409
 Rotational               0.889              2.981             28.908
 Vibrational            133.707             31.476             24.986
 Vibration     1          0.598              1.970              4.234
 Vibration     2          0.605              1.945              3.342
 Vibration     3          0.645              1.816              1.988
 Vibration     4          0.651              1.800              1.903
 Vibration     5          0.659              1.774              1.780
 Vibration     6          0.667              1.751              1.683
 Vibration     7          0.690              1.681              1.437
 Vibration     8          0.714              1.611              1.249
 Vibration     9          0.719              1.597              1.215
 Vibration    10          0.746              1.523              1.058
 Vibration    11          0.774              1.450              0.928
 Vibration    12          0.828              1.315              0.735
 Vibration    13          0.908              1.134              0.539
 Vibration    14          0.920              1.108              0.515

 Normal termination of Gaussian 16 at Wed Feb 21 18:46:28 2024.
