 Gaussian 16, Revision A.03,
 Gaussian 16:  EM64M-G16RevA.03 25-Dec-2016

 ---------------------
 # freq b3lyp/6-31g(d)
 ---------------------

 ---------
 good luck
 ---------
 Symbolic Z-matrix:
 Charge =  0 Multiplicity = 1

                         Standard orientation:
 ---------------------------------------------------------------------
 Center     Atomic      Atomic             Coordinates (Angstroms)
 Number     Number       Type             X           Y           Z
 ---------------------------------------------------------------------
      1          8           0        1.946574    1.662100   -0.047447
      2          6           0        1.024889    0.874571   -0.039156
      3          6           0        1.127803   -0.605421    0.366235
      4          6           0        2.404892   -1.274489   -0.144983
      5          6           0       -0.207958   -1.204202   -0.108719
      6          6           0       -1.253551   -0.051557   -0.029886
      7          6           0       -2.444644   -0.302832   -0.963481
      8          6           0       -1.762005    0.120417    1.415249
      9          6           0       -0.416918    1.180214   -0.452486
     10          1           0        1.155203   -0.605024    1.467394
     11          1           0        2.402651   -1.338257   -1.239613
     12          1           0        2.506649   -2.290283    0.251845
     13          1           0        3.281311   -0.692379    0.155390
     14          1           0       -0.517077   -2.080994    0.471769
     15          1           0       -0.106272   -1.529712   -1.154018
     16          1           0       -2.115445   -0.427868   -2.002291
     17          1           0       -2.986676   -1.211461   -0.672402
     18          1           0       -3.156479    0.531379   -0.934617
     19          1           0       -0.946872    0.318262    2.121354
     20          1           0       -2.284997   -0.781691    1.755112
     21          1           0       -2.464192    0.960106    1.482383
     22          1           0       -0.418551    1.297792   -1.546564
     23          1           0       -0.756891    2.133127   -0.032806
 ---------------------------------------------------------------------

 SCF Done:  E(RB3LYP) =  -388.517324161     A.U. after   13 cycles

 The electronic state is 1-A.
 Alpha  occ. eigenvalues --  -19.13446 -10.26744 -10.20527 -10.19455 -10.18745
 Alpha  occ. eigenvalues --  -10.18632 -10.18082 -10.17975 -10.17840  -1.03366
 Alpha  occ. eigenvalues --   -0.85160  -0.77580  -0.71893  -0.69080  -0.68318
 Alpha  occ. eigenvalues --   -0.62078  -0.54653  -0.52133  -0.48086  -0.45930
 Alpha  occ. eigenvalues --   -0.45095  -0.43691  -0.42461  -0.41006  -0.40592
 Alpha  occ. eigenvalues --   -0.38834  -0.37609  -0.37521  -0.36322  -0.35866
 Alpha  occ. eigenvalues --   -0.33803  -0.32596  -0.32272  -0.31396  -0.23415
 Alpha virt. eigenvalues --   -0.01457   0.07053   0.11025   0.11512   0.13094
 Alpha virt. eigenvalues --    0.13311   0.14488   0.15158   0.15931   0.16591
 Alpha virt. eigenvalues --    0.17398   0.17962   0.18132   0.19981   0.20226

 Mulliken charges:
               1
     1  O   -0.456222
     2  C    0.445841
     3  C   -0.165570
     4  C   -0.447823
     5  C   -0.285655
     6  C    0.093834
     7  C   -0.453318
     8  C   -0.454228
     9  C   -0.362502
    10  H    0.160492
    11  H    0.144363
    12  H    0.144404
    13  H    0.170269
    14  H    0.137562
    15  H    0.134200
    16  H    0.139501
    17  H    0.142443
    18  H    0.143677
    19  H    0.144339
    20  H    0.144147
    21  H    0.145704
    22  H    0.167451
    23  H    0.167093
 Sum of Mulliken charges =  -0.00000

 Dipole moment (field-independent basis, Debye):
    X=             -2.1477    Y=             -1.8172    Z=              0.0675  Tot=              2.8141
 Quadrupole moment (field-independent basis, Debye-Ang):
   XX=            -60.9462   YY=            -59.5017   ZZ=            -54.8465
   XY=             -5.6664   XZ=              0.2573   YZ=             -0.2817

  Exact polarizability:  93.294  -0.031  81.070   0.725  -0.977  72.659
 Approx polarizability: 120.564   6.721 118.167   0.992  -1.762 107.100

                      1                      2                      3
                      A                      A                      A
 Frequencies --     62.1527               122.6784               206.4733
 Red. masses --      3.4819                 2.6117                 1.0518
 Frc consts  --      0.0079                 0.0232                 0.0264
 IR Inten    --      3.4330                 0.1951                 0.2576

                      4                      5                      6
                      A                      A                      A
 Frequencies --    232.6972               238.3959               251.5832
 Red. masses --      1.6947                 1.1337                 1.7466
 Frc consts  --      0.0541                 0.0380                 0.0651
 IR Inten    --      1.0359                 0.0764                 2.5865

                      7                      8                      9
                      A                      A                      A
 Frequencies --    301.2153               317.9226               335.3680
 Red. masses --      1.5293                 2.6826                 2.3645
 Frc consts  --      0.0818                 0.1598                 0.1567
 IR Inten    --      0.3377                 1.1881                 0.5504

                     10                     11                     12
                      A                      A                      A
 Frequencies --    380.9283               404.5307               501.7105
 Red. masses --      2.2256                 2.1714                 2.7818
 Frc consts  --      0.1903                 0.2094                 0.4126
 IR Inten    --      2.0572                 0.4515                 4.4267

                     13                     14                     15
                      A                      A                      A
 Frequencies --    527.4356               565.8116               608.3138
 Red. masses --      3.3269                 3.2416                 3.1660
 Frc consts  --      0.5453                 0.6114                 0.6903
 IR Inten    --      0.8442                 3.4366                 1.4568

                     16                     17                     18
                      A                      A                      A
 Frequencies --    727.3293               782.9846               886.2387
 Red. masses --      3.4284                 3.1613                 1.9248
 Frc consts  --      1.0686                 1.1419                 0.8907
 IR Inten    --      3.8086                 0.3436                 3.6877

                     19                     20                     21
                      A                      A                      A
 Frequencies --    905.2685               919.0926               936.8309
 Red. masses --      1.6812                 2.1271                 1.7422
 Frc consts  --      0.8117                 1.0586                 0.9009
 IR Inten    --      1.5945                 1.9275                 1.0559

                     22                     23                     24
                      A                      A                      A
 Frequencies --    959.5876               973.8559              1013.5256
 Red. masses --      1.4520                 1.7208                 1.2311
 Frc consts  --      0.7878                 0.9616                 0.7451
 IR Inten    --      0.3638                 4.9195                 1.3768

                     25                     26                     27
                      A                      A                      A
 Frequencies --   1043.7919              1076.7542              1104.1816
 Red. masses --      1.6150                 1.3920                 2.0501
 Frc consts  --      1.0367                 0.9509                 1.4727
 IR Inten    --      4.8392                 2.1083                12.5016

                     28                     29                     30
                      A                      A                      A
 Frequencies --   1156.6339              1169.5695              1194.4169
 Red. masses --      2.7699                 1.7221                 1.7765
 Frc consts  --      2.1833                 1.3879                 1.4933
 IR Inten    --     38.1764                 3.2017                 0.7149

                     31                     32                     33
                      A                      A                      A
 Frequencies --   1223.8022              1267.7947              1284.9725
 Red. masses --      1.8931                 2.0627                 1.5482
 Frc consts  --      1.6705                 1.9534                 1.5061
 IR Inten    --     16.7680                 6.7984                 3.8634

                     34                     35                     36
                      A                      A                      A
 Frequencies --   1301.6863              1336.5995              1339.0364
 Red. masses --      1.9749                 1.6738                 1.6042
 Frc consts  --      1.9715                 1.7618                 1.6947
 IR Inten    --      4.6019                11.0990                 0.6242

                     37                     38                     39
                      A                      A                      A
 Frequencies --   1374.5698              1431.0370              1433.8755
 Red. masses --      1.6605                 1.2367                 1.2328
 Frc consts  --      1.8485                 1.4921                 1.4934
 IR Inten    --      2.0374                 4.6251                 4.1659

                     40                     41                     42
                      A                      A                      A
 Frequencies --   1450.3435              1476.5788              1514.4365
 Red. masses --      1.2172                 1.0918                 1.0578
 Frc consts  --      1.5085                 1.4026                 1.4293
 IR Inten    --      2.6698                 7.6810                 0.4954

                     43                     44                     45
                      A                      A                      A
 Frequencies --   1517.0815              1525.6542              1528.8540
 Red. masses --      1.0571                 1.0523                 1.0497
 Frc consts  --      1.4334                 1.4432                 1.4455
 IR Inten    --      1.4772                 3.2866                 4.1510

                     46                     47                     48
                      A                      A                      A
 Frequencies --   1530.9071              1535.9416              1537.7613
 Red. masses --      1.0673                 1.0564                 1.0537
 Frc consts  --      1.4738                 1.4683                 1.4681
 IR Inten    --      9.3388                 3.5669                 5.7232

                     49                     50                     51
                      A                      A                      A
 Frequencies --   1837.8848              3009.2811              3030.4630
 Red. masses --     12.5900                 1.0809                 1.0657
 Frc consts  --     25.0560                 5.7672                 5.7662
 IR Inten    --    196.1488                 3.8964                16.6645

                     52                     53                     54
                      A                      A                      A
 Frequencies --   3032.2988              3036.2482              3043.5401
 Red. masses --      1.0545                 1.0443                 1.0398
 Frc consts  --      5.7125                 5.6722                 5.6751
 IR Inten    --     12.6223                50.5166                13.9588

                     55                     56                     57
                      A                      A                      A
 Frequencies --   3052.2795              3089.5564              3099.9667
 Red. masses --      1.0365                 1.0990                 1.1015
 Frc consts  --      5.6895                 6.1806                 6.2364
 IR Inten    --     33.3894                16.2613                12.4263

                     58                     59                     60
                      A                      A                      A
 Frequencies --   3102.5198              3104.9998              3108.4937
 Red. masses --      1.0982                 1.1001                 1.1014
 Frc consts  --      6.2284                 6.2492                 6.2705
 IR Inten    --      1.8589                34.2235                43.5549

                     61                     62                     63
                      A                      A                      A
 Frequencies --   3109.4860              3116.2233              3136.2577
 Red. masses --      1.1013                 1.1021                 1.1021
 Frc consts  --      6.2741                 6.3054                 6.3869
 IR Inten    --     54.4137                36.2687                15.1327

 - Thermochemistry -
 -------------------
 Temperature   298.150 Kelvin.  Pressure   1.00000 Atm.
 Atom     1 has atomic number  8 and mass  15.99491

 Molecular mass:   126.10447 amu.
 Principal axes and moments of inertia in atomic units:
                           1         2         3
     Eigenvalues --   711.239801472.801981736.15813
           X            0.99879  -0.04926  -0.00060
           Y            0.04927   0.99874   0.00928
           Z            0.00014  -0.00930   0.99996
 This molecule is an asymmetric top.
 Rotational symmetry number  1.
 Warning -- assumption of classical behavior for rotation
           may cause significant error
 Rotational temperatures (Kelvin)      0.12178     0.05881     0.04989
 Rotational constants (GHZ):           2.53746     1.22538     1.03950
 Zero-point vibrational energy     540877.8 (Joules/Mol)
                                  129.27290 (Kcal/Mol)
 Warning -- explicit consideration of  15 degrees of freedom as
           vibrations may cause significant error
 Vibrational temperatures:     89.42   176.51   297.07   334.80   343.00
          (Kelvin)            361.97   433.38   457.42   482.52   548.07
                              582.03   721.85   758.86   814.08   875.23
                             1046.46  1126.54  1275.10  1302.48  1322.37
                             1347.89  1380.63  1401.16  1458.24  1501.78
                             1549.21  1588.67  1664.14  1682.75  1718.50
                             1760.78  1824.07  1848.79  1872.84  1923.07
                             1926.57  1977.70  2058.94  2063.03  2086.72
                             2124.47  2178.94  2182.74  2195.08  2199.68
                             2202.63  2209.88  2212.50  2644.31  4329.68
                             4360.16  4362.80  4368.48  4378.98  4391.55
                             4445.18  4460.16  4463.83  4467.40  4472.43
                             4473.86  4483.55  4512.38

 Zero-point correction=                           0.206009 (Hartree/Particle)
 Thermal correction to Energy=                    0.215769
 Thermal correction to Enthalpy=                  0.216713
 Thermal correction to Gibbs Free Energy=         0.171833
 Sum of electronic and zero-point Energies=           -388.311315
 Sum of electronic and thermal Energies=              -388.301555
 Sum of electronic and thermal Enthalpies=            -388.300611
 Sum of electronic and thermal Free Energies=         -388.345491

                     E (Thermal)             CV                S
                      KCal/Mol        Cal/Mol-Kelvin    Cal/Mol-Kelvin
 Total                  135.397             37.529             94.458
 Electronic               0.000              0.000              0.000
 Translational            0.889              2.981             40.409
 Rotational               0.889              2.981             28.988
 Vibrational            133.619             31.568             25.061
 Vibration     1          0.597              1.972              4.388
 Vibration     2          0.610              1.930              3.058
 Vibration     3          0.641              1.831              2.075
 Vibration     4          0.653              1.791              1.858
 Vibration     5          0.656              1.782              1.815
 Vibration     6          0.664              1.760              1.719
 Vibration     7          0.693              1.671              1.410
 Vibration     8          0.704              1.639              1.321
 Vibration     9          0.716              1.605              1.234
 Vibration    10          0.751              1.511              1.035
 Vibration    11          0.770              1.460              0.946
 Vibration    12          0.857              1.246              0.654
 Vibration    13          0.882              1.189              0.593
 Vibration    14          0.922              1.105              0.512
 Vibration    15          0.967              1.014              0.436

 Normal termination of Gaussian 16 at Wed Feb 21 18:44:47 2024.
