 Gaussian 16, Revision A.03,
 Gaussian 16:  EM64M-G16RevA.03 25-Dec-2016

 ---------------------
 # freq b3lyp/6-31g(d)
 ---------------------

 ---------
 good luck
 ---------
 Symbolic Z-matrix:
 Charge =  0 Multiplicity = 1

                         Standard orientation:
 ---------------------------------------------------------------------
 Center     Atomic      Atomic             Coordinates (Angstroms)
 Number     Number       Type             X           Y           Z
 ---------------------------------------------------------------------
      1          8           0        2.398443   -0.621322   -1.202113
      2          6           0        1.564480   -0.266026   -0.398651
      3          6           0        0.477012   -1.115838    0.255953
      4          6           0        0.351080   -0.419814    1.630819
      5          6           0       -0.854173   -0.689531   -0.455363
      6          6           0       -1.988473   -1.698428   -0.248575
      7          6           0       -1.147502    0.724613    0.163872
      8          6           0       -1.508480    1.803069   -0.859816
      9          6           0        0.109403    0.989822    1.039321
     10          6           0        1.365589    1.157335    0.156673
     11          1           0        0.686290   -2.186943    0.225596
     12          1           0       -0.491333   -0.786957    2.226512
     13          1           0        1.262273   -0.490467    2.236535
     14          1           0       -0.679894   -0.595792   -1.535410
     15          1           0       -2.924155   -1.323227   -0.681171
     16          1           0       -1.759721   -2.657446   -0.727427
     17          1           0       -2.169426   -1.888242    0.816260
     18          1           0       -1.998192    0.624441    0.853046
     19          1           0       -2.430504    1.539065   -1.391578
     20          1           0       -0.725513    1.934570   -1.615267
     21          1           0       -1.673707    2.772949   -0.374926
     22          1           0       -0.030052    1.794660    1.767352
     23          1           0        2.241463    1.428845    0.760948
     24          1           0        1.291316    1.893908   -0.648962
 ---------------------------------------------------------------------

 SCF Done:  E(RB3LYP) =  -426.609641486     A.U. after   13 cycles

 The electronic state is 1-A.
 Alpha  occ. eigenvalues --  -19.13181 -10.26575 -10.19814 -10.19613 -10.19359
 Alpha  occ. eigenvalues --  -10.19137 -10.19065 -10.18824 -10.18159 -10.18020
 Alpha  occ. eigenvalues --   -1.03101  -0.87958  -0.77343  -0.75277  -0.70455
 Alpha  occ. eigenvalues --   -0.68355  -0.64322  -0.56974  -0.55384  -0.52551
 Alpha  occ. eigenvalues --   -0.49411  -0.46844  -0.46045  -0.42649  -0.41598
 Alpha  occ. eigenvalues --   -0.40499  -0.40236  -0.39941  -0.38868  -0.37507
 Alpha  occ. eigenvalues --   -0.36556  -0.35628  -0.34728  -0.33274  -0.31643
 Alpha  occ. eigenvalues --   -0.30853  -0.30706  -0.22970
 Alpha virt. eigenvalues --   -0.00799   0.07533   0.10411   0.11365   0.11814
 Alpha virt. eigenvalues --    0.13265   0.14437   0.15031   0.15574   0.16178
 Alpha virt. eigenvalues --    0.16270   0.17300   0.18333   0.19128   0.20047

 Mulliken charges:
               1
     1  O   -0.458036
     2  C    0.450265
     3  C   -0.171807
     4  C   -0.291752
     5  C   -0.095805
     6  C   -0.455577
     7  C   -0.071467
     8  C   -0.462080
     9  C   -0.121399
    10  C   -0.357634
    11  H    0.135831
    12  H    0.142987
    13  H    0.143629
    14  H    0.142427
    15  H    0.147417
    16  H    0.150459
    17  H    0.144263
    18  H    0.126988
    19  H    0.147178
    20  H    0.148411
    21  H    0.144396
    22  H    0.123239
    23  H    0.169239
    24  H    0.168829
 Sum of Mulliken charges =  -0.00000

 Dipole moment (field-independent basis, Debye):
    X=             -2.3655    Y=              0.9066    Z=              1.8398  Tot=              3.1308
 Quadrupole moment (field-independent basis, Debye-Ang):
   XX=            -67.4049   YY=            -60.4412   ZZ=            -62.7118
   XY=              2.8803   XZ=              5.3900   YZ=             -1.2193

  Exact polarizability:  94.698   0.999  89.679  -0.833   1.236  82.590
 Approx polarizability: 133.338  -1.443 123.972  -8.642   4.208 126.820

                      1                      2                      3
                      A                      A                      A
 Frequencies --     82.8613               137.9690               217.2494
 Red. masses --      3.7167                 4.0541                 1.3363
 Frc consts  --      0.0150                 0.0455                 0.0372
 IR Inten    --      2.0134                 2.4639                 0.1820

                      4                      5                      6
                      A                      A                      A
 Frequencies --    240.0981               242.3532               283.6370
 Red. masses --      1.3501                 1.4203                 1.9118
 Frc consts  --      0.0459                 0.0492                 0.0906
 IR Inten    --      0.0720                 0.1563                 0.4153

                      7                      8                      9
                      A                      A                      A
 Frequencies --    324.3556               373.7595               429.7080
 Red. masses --      2.3373                 2.6279                 2.8872
 Frc consts  --      0.1449                 0.2163                 0.3141
 IR Inten    --      0.1307                 0.2151                 3.1479

                     10                     11                     12
                      A                      A                      A
 Frequencies --    470.3211               498.0632               542.5030
 Red. masses --      2.9038                 2.9776                 3.6382
 Frc consts  --      0.3785                 0.4352                 0.6309
 IR Inten    --      3.9779                 0.9789                 1.7708

                     13                     14                     15
                      A                      A                      A
 Frequencies --    593.4088               685.9281               755.7982
 Red. masses --      2.4911                 3.8120                 3.9627
 Frc consts  --      0.5168                 1.0567                 1.3337
 IR Inten    --      1.3399                 0.6567                 5.0233

                     16                     17                     18
                      A                      A                      A
 Frequencies --    783.2446               816.5700               829.1822
 Red. masses --      2.4727                 2.9074                 2.2971
 Frc consts  --      0.8938                 1.1422                 0.9305
 IR Inten    --      0.9500                 6.2230                 0.5378

                     19                     20                     21
                      A                      A                      A
 Frequencies --    902.6718               919.6678               928.8707
 Red. masses --      2.1766                 2.3627                 2.3989
 Frc consts  --      1.0450                 1.1774                 1.2195
 IR Inten    --      6.0285                 4.3401                 0.5874

                     22                     23                     24
                      A                      A                      A
 Frequencies --    952.1807               991.0221              1014.6212
 Red. masses --      1.9766                 1.6254                 1.3140
 Frc consts  --      1.0559                 0.9406                 0.7970
 IR Inten    --      0.1564                 1.3679                 1.5835

                     25                     26                     27
                      A                      A                      A
 Frequencies --   1019.6290              1046.2309              1068.9332
 Red. masses --      1.4804                 1.8313                 1.5006
 Frc consts  --      0.9068                 1.1811                 1.0102
 IR Inten    --     15.0014                 0.3512                13.6429

                     28                     29                     30
                      A                      A                      A
 Frequencies --   1078.1452              1124.7406              1139.5862
 Red. masses --      2.1939                 1.6712                 1.2608
 Frc consts  --      1.5025                 1.2456                 0.9647
 IR Inten    --      0.9535                 1.2692                 1.5065

                     31                     32                     33
                      A                      A                      A
 Frequencies --   1149.4404              1184.8237              1191.4248
 Red. masses --      1.4828                 2.2372                 1.9460
 Frc consts  --      1.1542                 1.8504                 1.6276
 IR Inten    --      3.1850                23.9460                12.0848

                     34                     35                     36
                      A                      A                      A
 Frequencies --   1205.6034              1251.6652              1270.9839
 Red. masses --      1.9474                 1.6527                 1.4572
 Frc consts  --      1.6677                 1.5255                 1.3869
 IR Inten    --      1.2375                 2.1371                 1.2740

                     37                     38                     39
                      A                      A                      A
 Frequencies --   1293.7364              1307.0515              1327.7927
 Red. masses --      1.5259                 1.4984                 1.4715
 Frc consts  --      1.5047                 1.5082                 1.5285
 IR Inten    --      0.4058                 2.2406                 0.9314

                     40                     41                     42
                      A                      A                      A
 Frequencies --   1336.4981              1369.8199              1386.8253
 Red. masses --      1.5517                 1.4374                 1.4014
 Frc consts  --      1.6330                 1.5891                 1.5880
 IR Inten    --      2.9387                 6.3269                 1.2052

                     43                     44                     45
                      A                      A                      A
 Frequencies --   1408.8340              1436.5735              1442.1765
 Red. masses --      1.4426                 1.2363                 1.2379
 Frc consts  --      1.6870                 1.5033                 1.5169
 IR Inten    --      2.7894                 2.4215                 1.9509

                     46                     47                     48
                      A                      A                      A
 Frequencies --   1485.3054              1524.8446              1526.1806
 Red. masses --      1.0884                 1.0495                 1.0523
 Frc consts  --      1.4147                 1.4377                 1.4441
 IR Inten    --     10.0439                 1.7897                 2.2892

                     49                     50                     51
                      A                      A                      A
 Frequencies --   1528.4858              1534.3349              1539.0984
 Red. masses --      1.0459                 1.0500                 1.0913
 Frc consts  --      1.4396                 1.4564                 1.5231
 IR Inten    --      5.4572                 7.4055                 4.4824

                     52                     53                     54
                      A                      A                      A
 Frequencies --   1849.0441              3020.0611              3039.7326
 Red. masses --     12.3139                 1.0837                 1.0668
 Frc consts  --     24.8050                 5.8235                 5.8076
 IR Inten    --    243.7764                14.6955                11.0388

                     55                     56                     57
                      A                      A                      A
 Frequencies --   3041.2501              3043.9308              3056.7361
 Red. masses --      1.0472                 1.0417                 1.0674
 Frc consts  --      5.7067                 5.6868                 5.8761
 IR Inten    --     32.3984                31.6381                11.6399

                     58                     59                     60
                      A                      A                      A
 Frequencies --   3065.2609              3100.7608              3103.6715
 Red. masses --      1.0599                 1.0885                 1.1020
 Frc consts  --      5.8673                 6.1664                 6.2542
 IR Inten    --     26.3066                31.7862                17.1516

                     61                     62                     63
                      A                      A                      A
 Frequencies --   3105.6796              3109.7394              3110.5528
 Red. masses --      1.1022                 1.1055                 1.1011
 Frc consts  --      6.2634                 6.2985                 6.2772
 IR Inten    --     52.1161                18.1467                22.3444

                     64                     65                     66
                      A                      A                      A
 Frequencies --   3114.3044              3120.6997              3134.1844
 Red. masses --      1.1029                 1.0960                 1.0888
 Frc consts  --      6.3025                 6.2890                 6.3018
 IR Inten    --     45.7988                25.7740                23.9714

 - Thermochemistry -
 -------------------
 Temperature   298.150 Kelvin.  Pressure   1.00000 Atm.
 Atom     1 has atomic number  8 and mass  15.99491

 Molecular mass:   138.10447 amu.
 Principal axes and moments of inertia in atomic units:
                           1         2         3
     Eigenvalues --  1020.100241404.911181664.02649
           X            0.99735   0.05663   0.04574
           Y           -0.05439   0.99733  -0.04879
           Z           -0.04838   0.04618   0.99776
 This molecule is an asymmetric top.
 Rotational symmetry number  1.
 Warning -- assumption of classical behavior for rotation
           may cause significant error
 Rotational temperatures (Kelvin)      0.08491     0.06165     0.05205
 Rotational constants (GHZ):           1.76918     1.28459     1.08456
 Zero-point vibrational energy     563503.4 (Joules/Mol)
                                  134.68055 (Kcal/Mol)
 Warning -- explicit consideration of  13 degrees of freedom as
           vibrations may cause significant error
 Vibrational temperatures:    119.22   198.51   312.57   345.45   348.69
          (Kelvin)            408.09   466.68   537.76   618.25   676.69
                              716.60   780.54   853.78   986.90  1087.42
                             1126.91  1174.86  1193.01  1298.74  1323.20
                             1336.44  1369.98  1425.86  1459.81  1467.02
                             1505.29  1537.96  1551.21  1618.25  1639.61
                             1653.79  1704.70  1714.19  1734.59  1800.87
                             1828.66  1861.40  1880.56  1910.40  1922.92
                             1970.87  1995.33  2027.00  2066.91  2074.97
                             2137.02  2193.91  2195.83  2199.15  2207.57
                             2214.42  2660.36  4345.19  4373.50  4375.68
                             4379.54  4397.96  4410.23  4461.30  4465.49
                             4468.38  4474.22  4475.39  4480.79  4489.99
                             4509.39

 Zero-point correction=                           0.214627 (Hartree/Particle)
 Thermal correction to Energy=                    0.223780
 Thermal correction to Enthalpy=                  0.224724
 Thermal correction to Gibbs Free Energy=         0.180975
 Sum of electronic and zero-point Energies=           -426.395014
 Sum of electronic and thermal Energies=              -426.385862
 Sum of electronic and thermal Enthalpies=            -426.384918
 Sum of electronic and thermal Free Energies=         -426.428666

                     E (Thermal)             CV                S
                      KCal/Mol        Cal/Mol-Kelvin    Cal/Mol-Kelvin
 Total                  140.424             36.863             92.077
 Electronic               0.000              0.000              0.000
 Translational            0.889              2.981             40.680
 Rotational               0.889              2.981             29.257
 Vibrational            138.646             30.901             22.139
 Vibration     1          0.600              1.961              3.822
 Vibration     2          0.614              1.915              2.832
 Vibration     3          0.646              1.815              1.982
 Vibration     4          0.657              1.779              1.802
 Vibration     5          0.659              1.775              1.786
 Vibration     6          0.682              1.704              1.512
 Vibration     7          0.709              1.627              1.288
 Vibration     8          0.745              1.526              1.064
 Vibration     9          0.791              1.406              0.860
 Vibration    10          0.827              1.316              0.737
 Vibration    11          0.854              1.254              0.663
 Vibration    12          0.898              1.156              0.560
 Vibration    13          0.951              1.046              0.461

 Optimization completed.
    -- Stationary point found.
 Normal termination of Gaussian 16 at Wed Feb 21 19:13:42 2024.
