 Gaussian 16, Revision A.03,
 Gaussian 16:  EM64M-G16RevA.03 25-Dec-2016

 ---------------------
 # freq b3lyp/6-31g(d)
 ---------------------

 ---------
 good luck
 ---------
 Symbolic Z-matrix:
 Charge =  0 Multiplicity = 1

                         Standard orientation:
 ---------------------------------------------------------------------
 Center     Atomic      Atomic             Coordinates (Angstroms)
 Number     Number       Type             X           Y           Z
 ---------------------------------------------------------------------
      1          8           0        0.096606    2.253698   -0.825697
      2          6           0       -0.324692    1.143971   -0.555804
      3          6           0       -1.760517    0.861640   -0.134294
      4          6           0       -1.709548    0.476615    1.366810
      5          6           0       -0.741359   -0.726597    1.568830
      6          6           0       -0.229152   -1.229678    0.198708
      7          6           0       -1.465073   -1.615373   -0.644931
      8          6           0       -2.309616   -0.338460   -0.940531
      9          6           0        0.541241   -0.123268   -0.578239
     10          6           0        2.034392    0.156131   -0.265493
     11          6           0        2.923217   -1.033353   -0.658489
     12          6           0        2.333795    0.605837    1.173198
     13          1           0       -2.361571    1.762402   -0.290002
     14          1           0       -2.725673    0.226068    1.695394
     15          1           0       -1.391835    1.340725    1.960541
     16          1           0        0.092980   -0.441306    2.213640
     17          1           0       -1.256297   -1.551475    2.075996
     18          1           0        0.411102   -2.108197    0.340185
     19          1           0       -2.061981   -2.355664   -0.098488
     20          1           0       -1.151693   -2.094681   -1.579934
     21          1           0       -3.360314   -0.494466   -0.668796
     22          1           0       -2.299205   -0.101385   -2.010847
     23          1           0        0.529684   -0.433386   -1.638127
     24          1           0        2.292458    0.999866   -0.918059
     25          1           0        3.982816   -0.782244   -0.531314
     26          1           0        2.772217   -1.321264   -1.706118
     27          1           0        2.721187   -1.915054   -0.037275
     28          1           0        2.212956   -0.211628    1.893553
     29          1           0        1.691670    1.438367    1.479703
     30          1           0        3.372524    0.948956    1.246931
 ---------------------------------------------------------------------

 SCF Done:  E(RB3LYP) =  -505.240850086     A.U. after   13 cycles

 The electronic state is 1-A.
 Alpha  occ. eigenvalues --  -19.13040 -10.26191 -10.19316 -10.19091 -10.19051
 Alpha  occ. eigenvalues --  -10.19027 -10.19016 -10.18831 -10.18654 -10.18418
 Alpha  occ. eigenvalues --  -10.17342 -10.17058  -1.02889  -0.85950  -0.79932
 Alpha  occ. eigenvalues --   -0.74997  -0.74281  -0.71213  -0.68044  -0.62057
 Alpha  occ. eigenvalues --   -0.61428  -0.56965  -0.55651  -0.50339  -0.48485
 Alpha  occ. eigenvalues --   -0.47308  -0.46553  -0.44470  -0.42471  -0.42106
 Alpha  occ. eigenvalues --   -0.40327  -0.39691  -0.39001  -0.38445  -0.38405
 Alpha  occ. eigenvalues --   -0.37453  -0.36919  -0.36077  -0.34828  -0.33564
 Alpha  occ. eigenvalues --   -0.33363  -0.32242  -0.30863  -0.29707  -0.29192
 Alpha  occ. eigenvalues --   -0.22835
 Alpha virt. eigenvalues --   -0.00831   0.06427   0.09212   0.10935   0.11180
 Alpha virt. eigenvalues --    0.11987   0.13613   0.14481   0.15099   0.15215
 Alpha virt. eigenvalues --    0.16716   0.16855   0.17542   0.18484   0.18788

 Mulliken charges:
               1
     1  O   -0.472864
     2  C    0.455515
     3  C   -0.163911
     4  C   -0.287788
     5  C   -0.278160
     6  C   -0.108272
     7  C   -0.278442
     8  C   -0.285880
     9  C   -0.177458
    10  C   -0.064908
    11  C   -0.453562
    12  C   -0.457250
    13  H    0.139156
    14  H    0.143157
    15  H    0.153191
    16  H    0.149365
    17  H    0.135754
    18  H    0.125199
    19  H    0.135379
    20  H    0.137777
    21  H    0.143536
    22  H    0.146707
    23  H    0.150249
    24  H    0.152255
    25  H    0.144735
    26  H    0.138733
    27  H    0.140274
    28  H    0.140503
    29  H    0.153795
    30  H    0.143214
 Sum of Mulliken charges =  -0.00000

 Dipole moment (field-independent basis, Debye):
    X=             -0.8828    Y=             -2.5694    Z=              0.6782  Tot=              2.8002
 Quadrupole moment (field-independent basis, Debye-Ang):
   XX=            -71.6131   YY=            -81.9798   ZZ=            -73.9400
   XY=             -0.6152   XZ=             -0.0310   YZ=              2.8464

  Exact polarizability: 120.953   1.479 106.008  -1.433   0.259  99.482
 Approx polarizability: 156.210   6.033 163.159  -3.693  -4.436 147.111

                      1                      2                      3
                      A                      A                      A
 Frequencies --     40.4002                67.1669               149.9030
 Red. masses --      2.9627                 2.8878                 2.9976
 Frc consts  --      0.0028                 0.0077                 0.0397
 IR Inten    --      0.5432                 1.2158                 2.1377

                      4                      5                      6
                      A                      A                      A
 Frequencies --    167.7720               201.0770               242.6770
 Red. masses --      2.7765                 2.2562                 1.2744
 Frc consts  --      0.0460                 0.0537                 0.0442
 IR Inten    --      1.9339                 0.6795                 0.3704

                      7                      8                      9
                      A                      A                      A
 Frequencies --    247.3320               283.6757               294.6333
 Red. masses --      1.8974                 2.2217                 1.2076
 Frc consts  --      0.0684                 0.1053                 0.0618
 IR Inten    --      0.1874                 0.2215                 0.1962

                     10                     11                     12
                      A                      A                      A
 Frequencies --    311.0363               368.8146               407.2573
 Red. masses --      2.4294                 2.4667                 2.4978
 Frc consts  --      0.1385                 0.1977                 0.2441
 IR Inten    --      2.0118                 0.4464                 3.9959

                     13                     14                     15
                      A                      A                      A
 Frequencies --    461.6827               494.0785               531.3363
 Red. masses --      3.5758                 4.2179                 4.0156
 Frc consts  --      0.4491                 0.6067                 0.6679
 IR Inten    --      0.8333                 1.5295                 5.1468

                     16                     17                     18
                      A                      A                      A
 Frequencies --    565.9934               595.6116               679.1653
 Red. masses --      2.9715                 4.9993                 3.9645
 Frc consts  --      0.5609                 1.0449                 1.0774
 IR Inten    --      1.2959                 0.5962                 4.4368

                     19                     20                     21
                      A                      A                      A
 Frequencies --    783.8982               811.1653               815.4442
 Red. masses --      3.2084                 2.8525                 1.4768
 Frc consts  --      1.1616                 1.1059                 0.5786
 IR Inten    --      0.9815                 2.6058                 0.9189

                     22                     23                     24
                      A                      A                      A
 Frequencies --    833.0049               858.9044               871.8447
 Red. masses --      1.9605                 2.2758                 2.0528
 Frc consts  --      0.8015                 0.9892                 0.9194
 IR Inten    --      2.0915                 2.6343                 6.7431

                     25                     26                     27
                      A                      A                      A
 Frequencies --    875.8085               918.6058               941.8529
 Red. masses --      2.4861                 2.4381                 1.1905
 Frc consts  --      1.1236                 1.2122                 0.6222
 IR Inten    --      0.8154                 1.8137                 1.3035

                     28                     29                     30
                      A                      A                      A
 Frequencies --    958.8212               975.5930              1000.2105
 Red. masses --      1.8327                 1.5023                 2.4365
 Frc consts  --      0.9927                 0.8424                 1.4362
 IR Inten    --      0.1374                 0.2500                 0.1175

                     31                     32                     33
                      A                      A                      A
 Frequencies --   1026.8008              1047.0683              1052.6370
 Red. masses --      2.6355                 2.0220                 1.9946
 Frc consts  --      1.6372                 1.3061                 1.3021
 IR Inten    --      2.6280                10.6128                 4.3359

                     34                     35                     36
                      A                      A                      A
 Frequencies --   1074.1942              1089.8473              1129.1877
 Red. masses --      2.7567                 1.8443                 1.8092
 Frc consts  --      1.8742                 1.2907                 1.3592
 IR Inten    --      0.1227                20.6151                 0.3127

                     37                     38                     39
                      A                      A                      A
 Frequencies --   1143.0780              1156.7032              1170.4766
 Red. masses --      1.5454                 1.3374                 1.0890
 Frc consts  --      1.1897                 1.0543                 0.8790
 IR Inten    --     17.1294                 0.5826                 0.2764

                     40                     41                     42
                      A                      A                      A
 Frequencies --   1207.1518              1223.3521              1249.3040
 Red. masses --      1.6755                 1.9712                 1.4990
 Frc consts  --      1.4386                 1.7381                 1.3784
 IR Inten    --      2.9826                 7.0393                 7.0595

                     43                     44                     45
                      A                      A                      A
 Frequencies --   1262.9978              1272.0827              1289.0723
 Red. masses --      1.2870                 1.1696                 1.5207
 Frc consts  --      1.2096                 1.1151                 1.4888
 IR Inten    --      0.5747                 0.1372                 1.5001

                     46                     47                     48
                      A                      A                      A
 Frequencies --   1303.8072              1334.2249              1348.7844
 Red. masses --      1.3400                 1.4715                 1.5389
 Frc consts  --      1.3421                 1.5433                 1.6495
 IR Inten    --      5.1451                 0.8301                 0.9250

                     49                     50                     51
                      A                      A                      A
 Frequencies --   1352.1968              1364.3444              1377.2726
 Red. masses --      1.3157                 1.4928                 1.6697
 Frc consts  --      1.4174                 1.6372                 1.8660
 IR Inten    --      0.4010                 0.3521                13.4733

                     52                     53                     54
                      A                      A                      A
 Frequencies --   1384.0847              1389.6794              1395.0859
 Red. masses --      1.4949                 1.4179                 1.4130
 Frc consts  --      1.6873                 1.6134                 1.6203
 IR Inten    --      8.0412                 2.0614                 0.7750

                     55                     56                     57
                      A                      A                      A
 Frequencies --   1411.6515              1431.4071              1450.0089
 Red. masses --      1.3182                 1.2853                 1.2368
 Frc consts  --      1.5477                 1.5516                 1.5322
 IR Inten    --      0.4217                 6.8945                 4.0026

                     58                     59                     60
                      A                      A                      A
 Frequencies --   1513.0957              1517.9517              1524.4433
 Red. masses --      1.0655                 1.0542                 1.0728
 Frc consts  --      1.4372                 1.4312                 1.4689
 IR Inten    --      0.4059                 0.3230                 1.4691

                     61                     62                     63
                      A                      A                      A
 Frequencies --   1528.5367              1532.9920              1538.8185
 Red. masses --      1.0621                 1.0765                 1.0518
 Frc consts  --      1.4620                 1.4906                 1.4674
 IR Inten    --      5.7783                 3.1831                11.5723

                     64                     65                     66
                      A                      A                      A
 Frequencies --   1541.3702              1550.9579              1810.8896
 Red. masses --      1.0607                 1.0856                11.9812
 Frc consts  --      1.4847                 1.5386                23.1491
 IR Inten    --      6.9970                 1.5675               171.3223

                     67                     68                     69
                      A                      A                      A
 Frequencies --   2971.8514              3037.5281              3043.8729
 Red. masses --      1.0808                 1.0364                 1.0607
 Frc consts  --      5.6238                 5.6340                 5.7902
 IR Inten    --     16.0286                25.6961                16.1815

                     70                     71                     72
                      A                      A                      A
 Frequencies --   3046.4311              3047.4709              3051.2638
 Red. masses --      1.0445                 1.0643                 1.0762
 Frc consts  --      5.7112                 5.8236                 5.9036
 IR Inten    --     11.3197                14.0816                 7.7863

                     73                     74                     75
                      A                      A                      A
 Frequencies --   3055.5063              3059.6084              3071.4872
 Red. masses --      1.0631                 1.0712                 1.0818
 Frc consts  --      5.8480                 5.9082                 6.0132
 IR Inten    --     53.9587                45.9963                53.6470

                     76                     77                     78
                      A                      A                      A
 Frequencies --   3075.1117              3090.2042              3097.3823
 Red. masses --      1.1050                 1.1016                 1.1047
 Frc consts  --      6.1564                 6.1979                 6.2442
 IR Inten    --      5.0738                10.5080                48.9763

                     79                     80                     81
                      A                      A                      A
 Frequencies --   3100.0719              3100.5713              3105.5272
 Red. masses --      1.0905                 1.0985                 1.1021
 Frc consts  --      6.1746                 6.2222                 6.2621
 IR Inten    --     33.2756                11.6078                31.6317

                     82                     83                     84
                      A                      A                      A
 Frequencies --   3109.1385              3122.0842              3130.6261
 Red. masses --      1.1009                 1.1019                 1.0944
 Frc consts  --      6.2702                 6.3285                 6.3196
 IR Inten    --     97.4492                25.4666                25.3810

 - Thermochemistry -
 -------------------
 Temperature   298.150 Kelvin.  Pressure   1.00000 Atm.
 Atom     1 has atomic number  8 and mass  15.99491

 Molecular mass:   166.13577 amu.
 Principal axes and moments of inertia in atomic units:
                           1         2         3
     Eigenvalues --  1295.024332260.701182511.89457
           X            0.99998  -0.00528   0.00256
           Y            0.00500   0.99513   0.09847
           Z           -0.00307  -0.09846   0.99514
 This molecule is an asymmetric top.
 Rotational symmetry number  1.
 Warning -- assumption of classical behavior for rotation
           may cause significant error
 Rotational temperatures (Kelvin)      0.06688     0.03831     0.03448
 Rotational constants (GHZ):           1.39360     0.79831     0.71848
 Zero-point vibrational energy     718154.5 (Joules/Mol)
                                  171.64305 (Kcal/Mol)
 Warning -- explicit consideration of  17 degrees of freedom as
           vibrations may cause significant error
 Vibrational temperatures:     58.13    96.64   215.68   241.39   289.30
          (Kelvin)            349.16   355.86   408.15   423.91   447.51
                              530.64   585.95   664.26   710.87   764.47
                              814.34   856.95   977.17  1127.85  1167.09
                             1173.24  1198.51  1235.77  1254.39  1260.09
                             1321.67  1355.12  1379.53  1403.66  1439.08
                             1477.34  1506.50  1514.51  1545.53  1568.05
                             1624.65  1644.63  1664.24  1684.05  1736.82
                             1760.13  1797.47  1817.17  1830.24  1854.69
                             1875.89  1919.65  1940.60  1945.51  1962.99
                             1981.59  1991.39  1999.44  2007.22  2031.05
                             2059.48  2086.24  2177.01  2183.99  2193.33
                             2199.22  2205.63  2214.02  2217.69  2231.48
                             2605.47  4275.83  4370.33  4379.45  4383.13
                             4384.63  4390.09  4396.19  4402.09  4419.18
                             4424.40  4446.11  4456.44  4460.31  4461.03
                             4468.16  4473.36  4491.98  4504.27

 Zero-point correction=                           0.273531 (Hartree/Particle)
 Thermal correction to Energy=                    0.285034
 Thermal correction to Enthalpy=                  0.285978
 Thermal correction to Gibbs Free Energy=         0.236348
 Sum of electronic and zero-point Energies=           -504.967319
 Sum of electronic and thermal Energies=              -504.955817
 Sum of electronic and thermal Enthalpies=            -504.954872
 Sum of electronic and thermal Free Energies=         -505.004502

                     E (Thermal)             CV                S
                      KCal/Mol        Cal/Mol-Kelvin    Cal/Mol-Kelvin
 Total                  178.861             45.739            104.455
 Electronic               0.000              0.000              0.000
 Translational            0.889              2.981             41.231
 Rotational               0.889              2.981             30.376
 Vibrational            177.084             39.777             32.848
 Vibration     1          0.594              1.981              5.239
 Vibration     2          0.598              1.970              4.235
 Vibration     3          0.618              1.903              2.673
 Vibration     4          0.625              1.882              2.460
 Vibration     5          0.638              1.838              2.123
 Vibration     6          0.659              1.775              1.783
 Vibration     7          0.661              1.767              1.750
 Vibration     8          0.682              1.704              1.511
 Vibration     9          0.689              1.684              1.447
 Vibration    10          0.700              1.653              1.357
 Vibration    11          0.741              1.536              1.085
 Vibration    12          0.772              1.454              0.936
 Vibration    13          0.819              1.335              0.761
 Vibration    14          0.850              1.263              0.673
 Vibration    15          0.886              1.181              0.584
 Vibration    16          0.922              1.105              0.512
 Vibration    17          0.953              1.041              0.457

 Normal termination of Gaussian 16 at Sat Feb 24 05:00:39 2024.
