 Gaussian 16, Revision A.03,
 Gaussian 16:  EM64M-G16RevA.03 25-Dec-2016

 ---------------------
 # freq b3lyp/6-31g(d)
 ---------------------

 ---------
 good luck
 ---------
 Symbolic Z-matrix:
 Charge =  0 Multiplicity = 1

                         Standard orientation:
 ---------------------------------------------------------------------
 Center     Atomic      Atomic             Coordinates (Angstroms)
 Number     Number       Type             X           Y           Z
 ---------------------------------------------------------------------
      1          8           0        0.193520    2.387545   -0.033188
      2          6           0       -0.236753    1.248275   -0.022143
      3          6           0       -1.640214    0.902982    0.458755
      4          6           0       -1.533470   -0.180039    1.558110
      5          6           0       -0.879013   -1.465500    0.974033
      6          6           0       -0.407199   -1.195774   -0.470890
      7          6           0       -1.641375   -0.881182   -1.343501
      8          6           0       -2.421609    0.326321   -0.746314
      9          6           0        0.556923    0.020147   -0.512197
     10          6           0        1.907280   -0.156987    0.252623
     11          6           0        2.564364   -1.515787   -0.043782
     12          6           0        2.895280    0.974304   -0.077954
     13          1           0       -2.111178    1.813909    0.839469
     14          1           0       -0.951995    0.207801    2.402730
     15          1           0       -2.538312   -0.390537    1.943685
     16          1           0       -1.595814   -2.295560    0.965808
     17          1           0       -0.040424   -1.789485    1.599855
     18          1           0        0.094926   -2.082260   -0.871566
     19          1           0       -1.318580   -0.662460   -2.368920
     20          1           0       -2.284647   -1.767285   -1.401496
     21          1           0       -3.416847    0.020485   -0.401074
     22          1           0       -2.577648    1.106485   -1.499402
     23          1           0        0.814249    0.217850   -1.565133
     24          1           0        1.697409   -0.114693    1.331857
     25          1           0        3.542639   -1.573704    0.447417
     26          1           0        2.729253   -1.645473   -1.121444
     27          1           0        1.969074   -2.363538    0.309857
     28          1           0        2.462288    1.957285    0.113168
     29          1           0        3.809776    0.866020    0.517678
     30          1           0        3.182392    0.934226   -1.137421
 ---------------------------------------------------------------------

 SCF Done:  E(RB3LYP) =  -505.242432322     A.U. after   14 cycles

 The electronic state is 1-A.
 Alpha  occ. eigenvalues --  -19.13130 -10.26345 -10.19460 -10.19139 -10.19112
 Alpha  occ. eigenvalues --  -10.19062 -10.19045 -10.19030 -10.18613 -10.18606
 Alpha  occ. eigenvalues --  -10.17496 -10.16163  -1.02984  -0.85999  -0.80002
 Alpha  occ. eigenvalues --   -0.75027  -0.74359  -0.71040  -0.67668  -0.61606
 Alpha  occ. eigenvalues --   -0.61371  -0.56895  -0.56380  -0.50751  -0.48977
 Alpha  occ. eigenvalues --   -0.47094  -0.46046  -0.44756  -0.42293  -0.41405
 Alpha  occ. eigenvalues --   -0.40247  -0.39903  -0.38906  -0.38373  -0.38024
 Alpha  occ. eigenvalues --   -0.37611  -0.36985  -0.36206  -0.34823  -0.33691
 Alpha  occ. eigenvalues --   -0.33347  -0.32047  -0.31026  -0.30021  -0.29326
 Alpha  occ. eigenvalues --   -0.22657
 Alpha virt. eigenvalues --   -0.01133   0.06551   0.09400   0.10550   0.11100
 Alpha virt. eigenvalues --    0.12676   0.14468   0.14569   0.15259   0.15648
 Alpha virt. eigenvalues --    0.15676   0.16634   0.17804   0.18013   0.18486

 Mulliken charges:
               1
     1  O   -0.461244
     2  C    0.447949
     3  C   -0.163736
     4  C   -0.287063
     5  C   -0.277708
     6  C   -0.113383
     7  C   -0.277989
     8  C   -0.283754
     9  C   -0.162254
    10  C   -0.075019
    11  C   -0.451562
    12  C   -0.455760
    13  H    0.139143
    14  H    0.148337
    15  H    0.143542
    16  H    0.136196
    17  H    0.144173
    18  H    0.127184
    19  H    0.138104
    20  H    0.136833
    21  H    0.142291
    22  H    0.151843
    23  H    0.145625
    24  H    0.124846
    25  H    0.144796
    26  H    0.140692
    27  H    0.145858
    28  H    0.187306
    29  H    0.132338
    30  H    0.132417
 Sum of Mulliken charges =  -0.00000

 Dipole moment (field-independent basis, Debye):
    X=             -1.0573    Y=             -2.6954    Z=              0.0574  Tot=              2.8959
 Quadrupole moment (field-independent basis, Debye-Ang):
   XX=            -72.3053   YY=            -82.7283   ZZ=            -72.8727
   XY=             -1.3684   XZ=              0.0299   YZ=              0.0624

  Exact polarizability: 123.117   1.521 108.130  -0.538   0.199  97.102
 Approx polarizability: 158.087   5.948 163.142  -1.335  -0.400 146.648

                      1                      2                      3
                      A                      A                      A
 Frequencies --     37.2280                77.5988               147.9432
 Red. masses --      3.6169                 2.5664                 2.4649
 Frc consts  --      0.0030                 0.0091                 0.0318
 IR Inten    --      1.6926                 0.0333                 1.0607

                      4                      5                      6
                      A                      A                      A
 Frequencies --    176.9487               191.0955               240.0251
 Red. masses --      2.5242                 2.7751                 1.0756
 Frc consts  --      0.0466                 0.0597                 0.0365
 IR Inten    --      0.4913                 2.3250                 0.5163

                      7                      8                      9
                      A                      A                      A
 Frequencies --    250.4448               273.9914               314.4743
 Red. masses --      1.5307                 1.6124                 2.2798
 Frc consts  --      0.0566                 0.0713                 0.1328
 IR Inten    --      0.1395                 0.6847                 0.7351

                     10                     11                     12
                      A                      A                      A
 Frequencies --    327.5586               379.2674               401.2956
 Red. masses --      2.8137                 2.8251                 2.7936
 Frc consts  --      0.1779                 0.2394                 0.2651
 IR Inten    --      1.0861                 0.5053                 0.3434

                     13                     14                     15
                      A                      A                      A
 Frequencies --    431.1935               492.2107               504.8122
 Red. masses --      2.5294                 4.1966                 3.5166
 Frc consts  --      0.2771                 0.5990                 0.5280
 IR Inten    --      0.5557                 2.3942                 9.5072

                     16                     17                     18
                      A                      A                      A
 Frequencies --    541.1720               615.2554               692.0660
 Red. masses --      3.8466                 4.8800                 4.1306
 Frc consts  --      0.6637                 1.0884                 1.1656
 IR Inten    --      1.1806                 1.8620                 1.9958

                     19                     20                     21
                      A                      A                      A
 Frequencies --    783.2913               812.1661               818.3336
 Red. masses --      4.7352                 1.4002                 1.9336
 Frc consts  --      1.7117                 0.5442                 0.7629
 IR Inten    --      0.4828                 1.9788                 2.8848

                     22                     23                     24
                      A                      A                      A
 Frequencies --    839.2972               864.4616               874.4503
 Red. masses --      2.0298                 2.1908                 2.0844
 Frc consts  --      0.8425                 0.9646                 0.9391
 IR Inten    --      0.6401                 1.1992                 7.1581

                     25                     26                     27
                      A                      A                      A
 Frequencies --    883.0507               920.2544               945.9303
 Red. masses --      2.6250                 2.6247                 1.1639
 Frc consts  --      1.2060                 1.3096                 0.6136
 IR Inten    --      0.7336                 4.8856                 0.9786

                     28                     29                     30
                      A                      A                      A
 Frequencies --    963.3523               974.9312              1000.4843
 Red. masses --      1.7979                 1.4878                 3.4973
 Frc consts  --      0.9831                 0.8332                 2.0625
 IR Inten    --      0.7718                 0.1673                 1.9856

                     31                     32                     33
                      A                      A                      A
 Frequencies --   1014.9564              1046.7300              1054.5343
 Red. masses --      2.1719                 1.7490                 2.4395
 Frc consts  --      1.3182                 1.1290                 1.5984
 IR Inten    --      0.8898                 2.3626                 6.9269

                     34                     35                     36
                      A                      A                      A
 Frequencies --   1083.1895              1089.4695              1137.2480
 Red. masses --      2.8013                 1.9120                 1.3904
 Frc consts  --      1.9365                 1.3371                 1.0595
 IR Inten    --      1.7596                27.0731                 9.4519

                     37                     38                     39
                      A                      A                      A
 Frequencies --   1142.2872              1148.1037              1174.5811
 Red. masses --      1.7675                 1.9065                 1.0801
 Frc consts  --      1.3588                 1.4806                 0.8779
 IR Inten    --      3.6159                 5.5863                 0.4274

                     40                     41                     42
                      A                      A                      A
 Frequencies --   1201.6015              1222.0492              1249.1755
 Red. masses --      1.7120                 1.5946                 1.4843
 Frc consts  --      1.4564                 1.4031                 1.3646
 IR Inten    --     11.2793                 5.4900                11.5746

                     43                     44                     45
                      A                      A                      A
 Frequencies --   1261.1087              1274.6889              1284.3355
 Red. masses --      1.3265                 1.1499                 1.4061
 Frc consts  --      1.2430                 1.1009                 1.3666
 IR Inten    --      3.0761                 0.5657                 0.3641

                     46                     47                     48
                      A                      A                      A
 Frequencies --   1305.3446              1331.8253              1347.5668
 Red. masses --      1.4664                 1.6158                 1.5378
 Frc consts  --      1.4721                 1.6886                 1.6454
 IR Inten    --      0.6434                 0.4889                 0.6682

                     49                     50                     51
                      A                      A                      A
 Frequencies --   1354.1905              1362.1393              1370.6465
 Red. masses --      1.3013                 1.4122                 1.4941
 Frc consts  --      1.4060                 1.5438                 1.6538
 IR Inten    --      0.0875                 1.5402                 3.3934

                     52                     53                     54
                      A                      A                      A
 Frequencies --   1381.2151              1385.2211              1395.0889
 Red. masses --      1.3873                 1.4935                 1.4721
 Frc consts  --      1.5594                 1.6884                 1.6881
 IR Inten    --     15.4545                 5.1710                 3.2154

                     55                     56                     57
                      A                      A                      A
 Frequencies --   1400.5467              1429.2665              1448.8152
 Red. masses --      1.3783                 1.2363                 1.2221
 Frc consts  --      1.5929                 1.4879                 1.5114
 IR Inten    --      0.8107                 6.0803                 8.4844

                     58                     59                     60
                      A                      A                      A
 Frequencies --   1514.1944              1519.0862              1523.4619
 Red. masses --      1.0736                 1.0502                 1.0561
 Frc consts  --      1.4503                 1.4278                 1.4441
 IR Inten    --      0.0821                 5.1670                 4.1509

                     61                     62                     63
                      A                      A                      A
 Frequencies --   1525.2321              1532.5738              1535.1152
 Red. masses --      1.0655                 1.0896                 1.0528
 Frc consts  --      1.4604                 1.5079                 1.4618
 IR Inten    --      0.5446                 3.2841                 5.7766

                     64                     65                     66
                      A                      A                      A
 Frequencies --   1547.1455              1547.7075              1806.6159
 Red. masses --      1.0531                 1.0871                11.6749
 Frc consts  --      1.4852                 1.5343                22.4509
 IR Inten    --      9.4539                 5.8071               174.6683

                     67                     68                     69
                      A                      A                      A
 Frequencies --   3002.8757              3017.9825              3037.9677
 Red. masses --      1.0812                 1.0837                 1.0406
 Frc consts  --      5.7442                 5.8155                 5.6586
 IR Inten    --      2.9541                21.1618                21.2820

                     70                     71                     72
                      A                      A                      A
 Frequencies --   3043.3177              3044.0601              3046.1152
 Red. masses --      1.0601                 1.0404                 1.0610
 Frc consts  --      5.7851                 5.6802                 5.8002
 IR Inten    --     33.1279                37.1825                16.0222

                     73                     74                     75
                      A                      A                      A
 Frequencies --   3054.0798              3057.3982              3076.2606
 Red. masses --      1.0652                 1.0645                 1.1020
 Frc consts  --      5.8540                 5.8627                 6.1446
 IR Inten    --     46.3563                41.6934                14.3466

                     76                     77                     78
                      A                      A                      A
 Frequencies --   3078.0916              3083.2894              3095.5727
 Red. masses --      1.1034                 1.0853                 1.1008
 Frc consts  --      6.1596                 6.0788                 6.2150
 IR Inten    --      1.5531                54.9274                10.4633

                     79                     80                     81
                      A                      A                      A
 Frequencies --   3098.0517              3100.7892              3101.9691
 Red. masses --      1.1029                 1.0975                 1.0946
 Frc consts  --      6.2369                 6.2171                 6.2055
 IR Inten    --     30.7242                58.3182                37.6974

                     82                     83                     84
                      A                      A                      A
 Frequencies --   3106.0511              3121.7500              3167.9228
 Red. masses --      1.1002                 1.1002                 1.0966
 Frc consts  --      6.2536                 6.3173                 6.4841
 IR Inten    --     71.0855                35.8906                 4.1298

 - Thermochemistry -
 -------------------
 Temperature   298.150 Kelvin.  Pressure   1.00000 Atm.
 Atom     1 has atomic number  8 and mass  15.99491

 Molecular mass:   166.13577 amu.
 Principal axes and moments of inertia in atomic units:
                           1         2         3
     Eigenvalues --  1286.746842182.828762682.69768
           X            0.99999  -0.00517  -0.00093
           Y            0.00517   0.99999  -0.00074
           Z            0.00093   0.00074   1.00000
 This molecule is an asymmetric top.
 Rotational symmetry number  1.
 Warning -- assumption of classical behavior for rotation
           may cause significant error
 Rotational temperatures (Kelvin)      0.06731     0.03968     0.03229
 Rotational constants (GHZ):           1.40256     0.82679     0.67273
 Zero-point vibrational energy     718089.5 (Joules/Mol)
                                  171.62751 (Kcal/Mol)
 Warning -- explicit consideration of  17 degrees of freedom as
           vibrations may cause significant error
 Vibrational temperatures:     53.56   111.65   212.86   254.59   274.94
          (Kelvin)            345.34   360.33   394.21   452.46   471.28
                              545.68   577.37   620.39   708.18   726.31
                              778.63   885.22   995.73  1126.98  1168.53
                             1177.40  1207.56  1243.77  1258.14  1270.51
                             1324.04  1360.98  1386.05  1402.71  1439.47
                             1460.30  1506.01  1517.24  1558.47  1567.50
                             1636.25  1643.50  1651.87  1689.96  1728.84
                             1758.26  1797.28  1814.45  1833.99  1847.87
                             1878.10  1916.20  1938.85  1948.38  1959.81
                             1972.05  1987.26  1993.02  2007.22  2015.07
                             2056.40  2084.52  2178.59  2185.63  2191.92
                             2194.47  2205.03  2208.69  2226.00  2226.81
                             2599.32  4320.47  4342.20  4370.96  4378.66
                             4379.72  4382.68  4394.14  4398.91  4426.05
                             4428.69  4436.17  4453.84  4457.41  4461.34
                             4463.04  4468.91  4491.50  4557.93

 Zero-point correction=                           0.273506 (Hartree/Particle)
 Thermal correction to Energy=                    0.285001
 Thermal correction to Enthalpy=                  0.285946
 Thermal correction to Gibbs Free Energy=         0.236359
 Sum of electronic and zero-point Energies=           -504.968926
 Sum of electronic and thermal Energies=              -504.957431
 Sum of electronic and thermal Enthalpies=            -504.956487
 Sum of electronic and thermal Free Energies=         -505.006074

                     E (Thermal)             CV                S
                      KCal/Mol        Cal/Mol-Kelvin    Cal/Mol-Kelvin
 Total                  178.841             45.764            104.364
 Electronic               0.000              0.000              0.000
 Translational            0.889              2.981             41.231
 Rotational               0.889              2.981             30.400
 Vibrational            177.064             39.802             32.733
 Vibration     1          0.594              1.982              5.401
 Vibration     2          0.599              1.964              3.951
 Vibration     3          0.617              1.905              2.699
 Vibration     4          0.628              1.871              2.360
 Vibration     5          0.634              1.852              2.217
 Vibration     6          0.657              1.779              1.803
 Vibration     7          0.663              1.762              1.727
 Vibration     8          0.676              1.721              1.571
 Vibration     9          0.702              1.646              1.339
 Vibration    10          0.711              1.620              1.272
 Vibration    11          0.749              1.514              1.042
 Vibration    12          0.767              1.467              0.958
 Vibration    13          0.792              1.402              0.855
 Vibration    14          0.848              1.267              0.678
 Vibration    15          0.860              1.239              0.646
 Vibration    16          0.896              1.159              0.563
 Vibration    17          0.975              1.000              0.424

 Normal termination of Gaussian 16 at Sat Feb 24 05:04:02 2024.
