 Gaussian 16, Revision A.03,
 Gaussian 16:  EM64M-G16RevA.03 25-Dec-2016

 ---------------------
 # freq b3lyp/6-31g(d)
 ---------------------

 ---------
 good luck
 ---------
 Symbolic Z-matrix:
 Charge =  0 Multiplicity = 1

                         Standard orientation:
 ---------------------------------------------------------------------
 Center     Atomic      Atomic             Coordinates (Angstroms)
 Number     Number       Type             X           Y           Z
 ---------------------------------------------------------------------
      1          8           0        2.835303   -0.625215    0.034607
      2          6           0        1.679927   -0.255325   -0.056029
      3          6           0        1.310926    1.156141   -0.520615
      4          6           0       -0.105330    1.575105   -0.059710
      5          6           0       -1.249879    1.074703   -0.983789
      6          6           0       -1.587623   -0.426393   -0.827181
      7          6           0       -0.358340   -1.323270   -1.056519
      8          6           0        0.492292   -1.150098    0.251489
      9          6           0       -0.507015   -0.496965    1.286468
     10          6           0       -1.890929   -0.739892    0.648377
     11          6           0       -0.288448    1.029435    1.372487
     12          1           0        2.069415    1.834337   -0.113389
     13          1           0        1.412602    1.203714   -1.613895
     14          1           0       -0.145129    2.671423   -0.052329
     15          1           0       -2.155708    1.654059   -0.757355
     16          1           0       -0.996132    1.294419   -2.029983
     17          1           0       -2.414321   -0.686709   -1.499119
     18          1           0        0.200422   -1.072756   -1.965679
     19          1           0       -0.668117   -2.369925   -1.152183
     20          1           0        0.876270   -2.108256    0.609371
     21          1           0       -0.404844   -0.956961    2.274323
     22          1           0       -2.208474   -1.784353    0.761940
     23          1           0       -2.671063   -0.103966    1.083698
     24          1           0        0.596870    1.271411    1.976236
     25          1           0       -1.147691    1.494621    1.871641
 ---------------------------------------------------------------------

 SCF Done:  E(RB3LYP) =  -464.722917956     A.U. after   13 cycles

 The electronic state is 1-A.
 Alpha  occ. eigenvalues --  -19.12682 -10.26300 -10.19615 -10.19542 -10.19190
 Alpha  occ. eigenvalues --  -10.19008 -10.18946 -10.18628 -10.18627 -10.18515
 Alpha  occ. eigenvalues --  -10.18244  -1.02644  -0.87351  -0.79012  -0.75686
 Alpha  occ. eigenvalues --   -0.74487  -0.68499  -0.65043  -0.60204  -0.57863
 Alpha  occ. eigenvalues --   -0.54335  -0.52031  -0.48752  -0.46782  -0.45549
 Alpha  occ. eigenvalues --   -0.44632  -0.42466  -0.41638  -0.40493  -0.39370
 Alpha  occ. eigenvalues --   -0.38058  -0.37850  -0.36912  -0.34915  -0.33785
 Alpha  occ. eigenvalues --   -0.33204  -0.31665  -0.31027  -0.30096  -0.29866
 Alpha  occ. eigenvalues --   -0.22839
 Alpha virt. eigenvalues --   -0.00658   0.06458   0.09858   0.11171   0.12555
 Alpha virt. eigenvalues --    0.13135   0.13994   0.15091   0.15554   0.15910
 Alpha virt. eigenvalues --    0.16531   0.17838   0.18305   0.18596   0.19111

 Mulliken charges:
               1
     1  O   -0.460293
     2  C    0.448315
     3  C   -0.361304
     4  C   -0.098736
     5  C   -0.270870
     6  C   -0.094756
     7  C   -0.293709
     8  C   -0.170649
     9  C   -0.103632
    10  C   -0.269452
    11  C   -0.282114
    12  H    0.167106
    13  H    0.162923
    14  H    0.128556
    15  H    0.133038
    16  H    0.131849
    17  H    0.122437
    18  H    0.143653
    19  H    0.148417
    20  H    0.145949
    21  H    0.131394
    22  H    0.133870
    23  H    0.131737
    24  H    0.141282
    25  H    0.134988
 Sum of Mulliken charges =  -0.00000

 Dipole moment (field-independent basis, Debye):
    X=             -3.1052    Y=              0.9030    Z=             -0.2280  Tot=              3.2419
 Quadrupole moment (field-independent basis, Debye-Ang):
   XX=            -77.1968   YY=            -64.6026   ZZ=            -64.6258
   XY=              3.5763   XZ=             -0.5231   YZ=              0.0285

  Exact polarizability: 103.410   0.129  94.265   0.313  -0.717  87.545
 Approx polarizability: 152.622  -4.213 135.133   1.029  -1.164 130.425

                      1                      2                      3
                      A                      A                      A
 Frequencies --     90.9714               243.8854               254.9127
 Red. masses --      4.8117                 2.5196                 2.3984
 Frc consts  --      0.0235                 0.0883                 0.0918
 IR Inten    --      3.6638                 0.2585                 0.6751

                      4                      5                      6
                      A                      A                      A
 Frequencies --    365.8652               382.1066               411.3457
 Red. masses --      1.9393                 2.9492                 2.6905
 Frc consts  --      0.1529                 0.2537                 0.2682
 IR Inten    --      0.1674                 2.3379                 0.2472

                      7                      8                      9
                      A                      A                      A
 Frequencies --    417.2162               460.7370               484.1115
 Red. masses --      3.8688                 2.6245                 3.8075
 Frc consts  --      0.3968                 0.3282                 0.5258
 IR Inten    --      2.3025                 0.9664                 6.7013

                     10                     11                     12
                      A                      A                      A
 Frequencies --    519.5012               600.6432               647.7225
 Red. masses --      2.2915                 2.9141                 4.2006
 Frc consts  --      0.3644                 0.6194                 1.0383
 IR Inten    --      0.9055                 0.3390                 0.0159

                     13                     14                     15
                      A                      A                      A
 Frequencies --    734.6192               769.3026               781.6667
 Red. masses --      3.8227                 3.1739                 3.2589
 Frc consts  --      1.2155                 1.1067                 1.1732
 IR Inten    --      0.6394                 0.7019                 1.0882

                     16                     17                     18
                      A                      A                      A
 Frequencies --    808.2236               851.3613               882.0306
 Red. masses --      2.7230                 2.7361                 2.4757
 Frc consts  --      1.0480                 1.1685                 1.1348
 IR Inten    --      0.3483                 3.5839                 2.1003

                     19                     20                     21
                      A                      A                      A
 Frequencies --    886.8679               915.3472               921.7095
 Red. masses --      1.8854                 2.1407                 2.2240
 Frc consts  --      0.8737                 1.0568                 1.1132
 IR Inten    --      0.6006                 0.9411                 1.7533

                     22                     23                     24
                      A                      A                      A
 Frequencies --    962.5836               968.3004               980.9775
 Red. masses --      2.0412                 2.1589                 2.4978
 Frc consts  --      1.1143                 1.1926                 1.4162
 IR Inten    --      1.2150                 3.1673                 2.8655

                     25                     26                     27
                      A                      A                      A
 Frequencies --    996.9653              1009.7906              1042.2208
 Red. masses --      2.1150                 2.2636                 1.7765
 Frc consts  --      1.2385                 1.3599                 1.1369
 IR Inten    --      3.9253                 1.2548                 5.9708

                     28                     29                     30
                      A                      A                      A
 Frequencies --   1062.3031              1092.7465              1120.1549
 Red. masses --      1.7089                 1.7188                 1.6772
 Frc consts  --      1.1362                 1.2093                 1.2399
 IR Inten    --      1.5563                 4.2865                 4.9628

                     31                     32                     33
                      A                      A                      A
 Frequencies --   1138.3699              1144.7591              1170.9662
 Red. masses --      1.0917                 1.5116                 1.1252
 Frc consts  --      0.8335                 1.1671                 0.9090
 IR Inten    --      0.1859                12.0370                 0.5762

                     34                     35                     36
                      A                      A                      A
 Frequencies --   1198.7584              1203.6806              1252.8687
 Red. masses --      1.1866                 1.3346                 1.5847
 Frc consts  --      1.0046                 1.1393                 1.4656
 IR Inten    --      1.1171                 7.9030                13.6026

                     37                     38                     39
                      A                      A                      A
 Frequencies --   1265.2415              1285.1126              1295.0272
 Red. masses --      1.3334                 1.4267                 1.6122
 Frc consts  --      1.2576                 1.3883                 1.5930
 IR Inten    --     10.6820                 0.7043                 0.2105

                     40                     41                     42
                      A                      A                      A
 Frequencies --   1314.7423              1325.4441              1330.3535
 Red. masses --      1.7456                 1.4245                 1.6381
 Frc consts  --      1.7777                 1.4745                 1.7081
 IR Inten    --      2.2199                 0.5725                 0.4934

                     43                     44                     45
                      A                      A                      A
 Frequencies --   1348.9488              1361.1166              1363.5123
 Red. masses --      1.3998                 1.4661                 1.7992
 Frc consts  --      1.5008                 1.6003                 1.9708
 IR Inten    --      0.9881                 2.8856                 8.2162

                     46                     47                     48
                      A                      A                      A
 Frequencies --   1380.7866              1389.3884              1402.6242
 Red. masses --      1.5444                 1.4768                 1.3986
 Frc consts  --      1.7349                 1.6797                 1.6211
 IR Inten    --      0.4515                 3.2921                 2.6142

                     49                     50                     51
                      A                      A                      A
 Frequencies --   1405.2585              1482.6028              1514.1887
 Red. masses --      1.4722                 1.0845                 1.0870
 Frc consts  --      1.7129                 1.4046                 1.4684
 IR Inten    --      0.8894                 8.1224                 3.2977

                     52                     53                     54
                      A                      A                      A
 Frequencies --   1520.0492              1530.1453              1545.8936
 Red. masses --      1.0950                 1.0909                 1.0938
 Frc consts  --      1.4907                 1.5048                 1.5400
 IR Inten    --      3.8396                 8.2852                 1.7171

                     55                     56                     57
                      A                      A                      A
 Frequencies --   1814.8730              3026.4066              3034.8461
 Red. masses --     11.5978                 1.0624                 1.0635
 Frc consts  --     22.5070                 5.7331                 5.7711
 IR Inten    --    212.8742                20.7117                22.5103

                     58                     59                     60
                      A                      A                      A
 Frequencies --   3041.0654              3045.5029              3053.6080
 Red. masses --      1.0668                 1.0624                 1.0823
 Frc consts  --      5.8126                 5.8059                 5.9463
 IR Inten    --     11.3069                23.2800                64.2578

                     61                     62                     63
                      A                      A                      A
 Frequencies --   3057.2974              3063.9027              3071.7004
 Red. masses --      1.0675                 1.1032                 1.0791
 Frc consts  --      5.8791                 6.1015                 5.9987
 IR Inten    --     14.5849                31.4648                72.0507

                     64                     65                     66
                      A                      A                      A
 Frequencies --   3075.2421              3086.0446              3090.8717
 Red. masses --      1.1030                 1.0873                 1.1037
 Frc consts  --      6.1458                 6.1008                 6.2124
 IR Inten    --     33.4346                38.3767                47.7055

                     67                     68                     69
                      A                      A                      A
 Frequencies --   3094.6334              3097.9352              3114.8410
 Red. masses --      1.0979                 1.1037                 1.0886
 Frc consts  --      6.1949                 6.2406                 6.2228
 IR Inten    --     32.6837                 7.8945                35.6285

 - Thermochemistry -
 -------------------
 Temperature   298.150 Kelvin.  Pressure   1.00000 Atm.
 Atom     1 has atomic number  8 and mass  15.99491

 Molecular mass:   150.10447 amu.
 Principal axes and moments of inertia in atomic units:
                           1         2         3
     Eigenvalues --   995.049321539.375391716.46410
           X            0.99947   0.03227  -0.00370
           Y           -0.03227   0.99948   0.00093
           Z            0.00373  -0.00081   0.99999
 This molecule is an asymmetric top.
 Rotational symmetry number  1.
 Warning -- assumption of classical behavior for rotation
           may cause significant error
 Rotational temperatures (Kelvin)      0.08704     0.05627     0.05046
 Rotational constants (GHZ):           1.81372     1.17239     1.05143
 Zero-point vibrational energy     589787.7 (Joules/Mol)
                                  140.96264 (Kcal/Mol)
 Warning -- explicit consideration of  11 degrees of freedom as
           vibrations may cause significant error
 Vibrational temperatures:    130.89   350.90   366.76   526.40   549.77
          (Kelvin)            591.83   600.28   662.90   696.53   747.45
                              864.19   931.93  1056.95  1106.85  1124.64
                             1162.85  1224.92  1269.05  1276.01  1316.98
                             1326.13  1384.94  1393.17  1411.41  1434.41
                             1452.86  1499.52  1528.42  1572.22  1611.65
                             1637.86  1647.05  1684.76  1724.75  1731.83
                             1802.60  1820.40  1848.99  1863.26  1891.62
                             1907.02  1914.08  1940.84  1958.34  1961.79
                             1986.64  1999.02  2018.06  2021.85  2133.13
                             2178.58  2187.01  2201.54  2224.20  2611.20
                             4354.32  4366.47  4375.41  4381.80  4393.46
                             4398.77  4408.27  4419.49  4424.59  4440.13
                             4447.08  4452.49  4457.24  4481.56

 Zero-point correction=                           0.224638 (Hartree/Particle)
 Thermal correction to Energy=                    0.232645
 Thermal correction to Enthalpy=                  0.233589
 Thermal correction to Gibbs Free Energy=         0.192114
 Sum of electronic and zero-point Energies=           -464.498280
 Sum of electronic and thermal Energies=              -464.490273
 Sum of electronic and thermal Enthalpies=            -464.489329
 Sum of electronic and thermal Free Energies=         -464.530804

                     E (Thermal)             CV                S
                      KCal/Mol        Cal/Mol-Kelvin    Cal/Mol-Kelvin
 Total                  145.987             35.048             87.291
 Electronic               0.000              0.000              0.000
 Translational            0.889              2.981             40.929
 Rotational               0.889              2.981             29.354
 Vibrational            144.209             29.086             17.008
 Vibration     1          0.602              1.956              3.639
 Vibration     2          0.659              1.773              1.774
 Vibration     3          0.665              1.754              1.696
 Vibration     4          0.739              1.542              1.097
 Vibration     5          0.752              1.508              1.031
 Vibration     6          0.775              1.446              0.922
 Vibration     7          0.780              1.433              0.901
 Vibration     8          0.819              1.337              0.764
 Vibration     9          0.840              1.285              0.699
 Vibration    10          0.874              1.207              0.611
 Vibration    11          0.959              1.030              0.449

 Normal termination of Gaussian 16 at Thu Feb 22 02:09:02 2024.
