 Gaussian 16, Revision A.03,
 Gaussian 16:  EM64M-G16RevA.03 25-Dec-2016

 ---------------------
 # freq b3lyp/6-31g(d)
 ---------------------

 ---------
 good luck
 ---------
 Symbolic Z-matrix:
 Charge =  0 Multiplicity = 1

                         Standard orientation:
 ---------------------------------------------------------------------
 Center     Atomic      Atomic             Coordinates (Angstroms)
 Number     Number       Type             X           Y           Z
 ---------------------------------------------------------------------
      1          8           0        3.202039    0.000003    0.557412
      2          6           0        2.148630    0.000001   -0.053772
      3          6           0        1.431712    1.289530   -0.452545
      4          6           0        2.191162    2.536927    0.000980
      5          6           0       -0.024096    1.255120    0.075839
      6          6           0       -0.800449   -0.000003   -0.375395
      7          6           0       -2.316020   -0.000002    0.036599
      8          6           0       -3.016661    1.244705   -0.551738
      9          6           0       -2.510520   -0.000015    1.567041
     10          6           0       -3.016673   -1.244690   -0.551763
     11          6           0       -0.024094   -1.255125    0.075838
     12          6           0        1.431716   -1.289530   -0.452545
     13          6           0        2.191169   -2.536925    0.000981
     14          1           0        1.375582    1.281721   -1.553797
     15          1           0        1.678582    3.444072   -0.338469
     16          1           0        2.267341    2.571799    1.092884
     17          1           0        3.210527    2.543790   -0.395489
     18          1           0       -0.525940    2.168771   -0.259613
     19          1           0        0.006173    1.300881    1.173653
     20          1           0       -0.796842   -0.000002   -1.478529
     21          1           0       -4.097682    1.190027   -0.376747
     22          1           0       -2.662863    2.176145   -0.098165
     23          1           0       -2.859669    1.315601   -1.635641
     24          1           0       -2.069533    0.886088    2.036974
     25          1           0       -2.069538   -0.886131    2.036957
     26          1           0       -3.579750   -0.000015    1.811050
     27          1           0       -2.662893   -2.176141   -0.098202
     28          1           0       -2.859674   -1.315571   -1.635666
     29          1           0       -4.097696   -1.189998   -0.376778
     30          1           0       -0.525934   -2.168775   -0.259618
     31          1           0        0.006174   -1.300888    1.173652
     32          1           0        1.375587   -1.281722   -1.553798
     33          1           0        2.267347   -2.571796    1.092885
     34          1           0        1.678592   -3.444070   -0.338469
     35          1           0        3.210534   -2.543784   -0.395488
 ---------------------------------------------------------------------

 SCF Done:  E(RB3LYP) =  -545.771234629     A.U. after   13 cycles

 The electronic state is 1-A.
 Alpha  occ. eigenvalues --  -19.13267 -10.26245 -10.20173 -10.19442 -10.19441
 Alpha  occ. eigenvalues --  -10.19297 -10.18744 -10.18742 -10.17477 -10.17476
 Alpha  occ. eigenvalues --  -10.17448 -10.17125 -10.17125  -1.03110  -0.84615
 Alpha  occ. eigenvalues --   -0.80546  -0.78179  -0.73060  -0.69058  -0.68587
 Alpha  occ. eigenvalues --   -0.66979  -0.66329  -0.60198  -0.58437  -0.53084
 Alpha  occ. eigenvalues --   -0.52105  -0.47698  -0.47092  -0.45496  -0.44762
 Alpha  occ. eigenvalues --   -0.44113  -0.42616  -0.42316  -0.40996  -0.39877
 Alpha  occ. eigenvalues --   -0.39372  -0.38042  -0.37944  -0.37520  -0.36863
 Alpha  occ. eigenvalues --   -0.36082  -0.35887  -0.35565  -0.34374  -0.33997
 Alpha  occ. eigenvalues --   -0.33398  -0.33099  -0.31548  -0.30473  -0.29693
 Alpha  occ. eigenvalues --   -0.23289
 Alpha virt. eigenvalues --   -0.01005   0.07776   0.08960   0.10242   0.10971
 Alpha virt. eigenvalues --    0.12494   0.12630   0.13471   0.14039   0.14232
 Alpha virt. eigenvalues --    0.15776   0.15878   0.16281   0.16780   0.17062

 Mulliken charges:
               1
     1  O   -0.457219
     2  C    0.452059
     3  C   -0.170445
     4  C   -0.437368
     5  C   -0.282302
     6  C   -0.079572
     7  C    0.103376
     8  C   -0.452527
     9  C   -0.456580
    10  C   -0.452527
    11  C   -0.282302
    12  C   -0.170446
    13  C   -0.437368
    14  H    0.139552
    15  H    0.134609
    16  H    0.153966
    17  H    0.158141
    18  H    0.142930
    19  H    0.140452
    20  H    0.110456
    21  H    0.139997
    22  H    0.144817
    23  H    0.137303
    24  H    0.144331
    25  H    0.144331
    26  H    0.140565
    27  H    0.144816
    28  H    0.137303
    29  H    0.139997
    30  H    0.142930
    31  H    0.140452
    32  H    0.139552
    33  H    0.153966
    34  H    0.134609
    35  H    0.158141
 Sum of Mulliken charges =  -0.00000

 Dipole moment (field-independent basis, Debye):
    X=             -2.6348    Y=             -0.0000    Z=             -1.2164  Tot=              2.9020
 Quadrupole moment (field-independent basis, Debye-Ang):
   XX=            -93.7815   YY=            -81.7179   ZZ=            -82.2398
   XY=             -0.0000   XZ=             -4.2208   YZ=              0.0000

  Exact polarizability: 142.797  -0.000 125.965   2.734   0.000 105.738
 Approx polarizability: 185.639  -0.000 168.032   9.046   0.000 169.559

                      1                      2                      3
                      A                      A                      A
 Frequencies --     30.9466                62.4191               118.9461
 Red. masses --      2.5402                 6.3190                 2.7581
 Frc consts  --      0.0014                 0.0145                 0.0230
 IR Inten    --      0.0307                 2.5103                 0.0268

                      4                      5                      6
                      A                      A                      A
 Frequencies --    120.0963               158.9375               194.1474
 Red. masses --      2.1037                 2.6420                 1.1632
 Frc consts  --      0.0179                 0.0393                 0.0258
 IR Inten    --      0.0607                 0.0272                 0.1298

                      7                      8                      9
                      A                      A                      A
 Frequencies --    203.5728               231.3064               242.2676
 Red. masses --      1.0271                 1.1697                 2.0993
 Frc consts  --      0.0251                 0.0369                 0.0726
 IR Inten    --      0.0394                 0.0057                 0.2112

                     10                     11                     12
                      A                      A                      A
 Frequencies --    243.3249               263.0819               265.9461
 Red. masses --      1.9876                 1.7726                 1.0224
 Frc consts  --      0.0693                 0.0723                 0.0426
 IR Inten    --      0.0010                 0.2771                 0.0137

                     13                     14                     15
                      A                      A                      A
 Frequencies --    302.4339               303.6229               331.4848
 Red. masses --      2.2556                 2.4300                 3.8681
 Frc consts  --      0.1216                 0.1320                 0.2504
 IR Inten    --      0.3791                 0.3666                10.0063

                     16                     17                     18
                      A                      A                      A
 Frequencies --    345.3817               385.8247               390.1145
 Red. masses --      2.0067                 3.5191                 2.1252
 Frc consts  --      0.1410                 0.3087                 0.1906
 IR Inten    --      0.1980                 1.5568                 0.0446

                     19                     20                     21
                      A                      A                      A
 Frequencies --    399.6448               436.6996               478.1590
 Red. masses --      2.4016                 3.3852                 2.7064
 Frc consts  --      0.2260                 0.3804                 0.3646
 IR Inten    --      0.7000                 1.2108                 0.2121

                     22                     23                     24
                      A                      A                      A
 Frequencies --    521.7890               530.5561               603.6855
 Red. masses --      2.4916                 2.2683                 3.2445
 Frc consts  --      0.3997                 0.3762                 0.6967
 IR Inten    --      0.0653                 0.4509                 1.8212

                     25                     26                     27
                      A                      A                      A
 Frequencies --    700.3526               761.8204               784.8880
 Red. masses --      4.2061                 2.5138                 3.0945
 Frc consts  --      1.2155                 0.8596                 1.1232
 IR Inten    --      1.1345                 3.0900                 0.5193

                     28                     29                     30
                      A                      A                      A
 Frequencies --    865.1095               887.3381               899.7839
 Red. masses --      1.3474                 3.0297                 2.5378
 Frc consts  --      0.5941                 1.4055                 1.2105
 IR Inten    --      4.0691                 0.6931                 6.2823

                     31                     32                     33
                      A                      A                      A
 Frequencies --    915.6128               936.3011               941.0138
 Red. masses --      2.1368                 1.7833                 1.7529
 Frc consts  --      1.0554                 0.9211                 0.9145
 IR Inten    --      7.9017                 1.9847                 1.0581

                     34                     35                     36
                      A                      A                      A
 Frequencies --    950.4036               969.3021              1000.9305
 Red. masses --      1.5305                 1.1994                 2.4892
 Frc consts  --      0.8145                 0.6639                 1.4693
 IR Inten    --      0.8219                 0.0470                12.1449

                     37                     38                     39
                      A                      A                      A
 Frequencies --   1018.8266              1019.8100              1044.6160
 Red. masses --      1.6965                 1.4131                 1.5103
 Frc consts  --      1.0376                 0.8659                 0.9710
 IR Inten    --      0.7105                 5.0675                 1.8022

                     40                     41                     42
                      A                      A                      A
 Frequencies --   1047.6314              1093.4058              1124.8938
 Red. masses --      1.3750                 1.5194                 1.7367
 Frc consts  --      0.8892                 1.0702                 1.2948
 IR Inten    --      0.4473                 3.8533                 9.1324

                     43                     44                     45
                      A                      A                      A
 Frequencies --   1134.1393              1150.0137              1156.6632
 Red. masses --      2.4023                 2.1119                 1.9334
 Frc consts  --      1.8206                 1.6456                 1.5240
 IR Inten    --      1.1894                 0.4913                 2.3459

                     46                     47                     48
                      A                      A                      A
 Frequencies --   1157.2135              1185.3549              1225.7800
 Red. masses --      2.0154                 1.9057                 2.0685
 Frc consts  --      1.5902                 1.5776                 1.8311
 IR Inten    --     12.2536                17.0783                 4.1926

                     49                     50                     51
                      A                      A                      A
 Frequencies --   1253.4928              1272.9318              1282.1918
 Red. masses --      2.5137                 2.5447                 1.5647
 Frc consts  --      2.3270                 2.4294                 1.5156
 IR Inten    --      3.6234                16.4281                 0.6657

                     52                     53                     54
                      A                      A                      A
 Frequencies --   1308.2967              1329.3142              1340.3620
 Red. masses --      1.2769                 1.2953                 1.3576
 Frc consts  --      1.2877                 1.3486                 1.4370
 IR Inten    --      0.0115                 0.0125                 1.4279

                     55                     56                     57
                      A                      A                      A
 Frequencies --   1358.3859              1379.6882              1389.1927
 Red. masses --      1.3125                 1.3984                 1.3374
 Frc consts  --      1.4269                 1.5684                 1.5207
 IR Inten    --      0.3256                 4.8849                 3.4617

                     58                     59                     60
                      A                      A                      A
 Frequencies --   1405.3057              1412.4984              1430.2394
 Red. masses --      1.9472                 1.5386                 1.2451
 Frc consts  --      2.2657                 1.8086                 1.5006
 IR Inten    --      7.0244                 1.3467                 2.8339

                     61                     62                     63
                      A                      A                      A
 Frequencies --   1430.5738              1439.6976              1441.2953
 Red. masses --      1.2312                 1.2298                 1.2479
 Frc consts  --      1.4846                 1.5019                 1.5274
 IR Inten    --      8.1578                 2.9590                 4.8917

                     64                     65                     66
                      A                      A                      A
 Frequencies --   1461.2983              1511.7238              1515.5345
 Red. masses --      1.2234                 1.0629                 1.0659
 Frc consts  --      1.5392                 1.4311                 1.4425
 IR Inten    --      5.5835                 0.6652                 0.0008

                     67                     68                     69
                      A                      A                      A
 Frequencies --   1518.1132              1520.2042              1521.4455
 Red. masses --      1.0446                 1.0516                 1.0436
 Frc consts  --      1.4184                 1.4319                 1.4233
 IR Inten    --      0.9508                 5.4656                 0.6614

                     70                     71                     72
                      A                      A                      A
 Frequencies --   1523.4676              1524.2701              1525.9761
 Red. masses --      1.0490                 1.0490                 1.0600
 Frc consts  --      1.4344                 1.4359                 1.4543
 IR Inten    --      0.5352                 8.9265                 7.2404

                     73                     74                     75
                      A                      A                      A
 Frequencies --   1531.4164              1539.3304              1542.6720
 Red. masses --      1.0796                 1.0506                 1.0596
 Frc consts  --      1.4918                 1.4667                 1.4858
 IR Inten    --      2.5393                 3.8045                 2.1051

                     76                     77                     78
                      A                      A                      A
 Frequencies --   1551.8695              1804.1595              2980.1892
 Red. masses --      1.0557                11.6845                 1.0822
 Frc consts  --      1.4979                22.4083                 5.6628
 IR Inten    --     13.6818               158.7013                13.8443

                     79                     80                     81
                      A                      A                      A
 Frequencies --   2989.3279              3000.5486              3033.5986
 Red. masses --      1.0808                 1.0812                 1.0643
 Frc consts  --      5.6903                 5.7354                 5.7707
 IR Inten    --      2.8661                25.5980                 4.0779

                     82                     83                     84
                      A                      A                      A
 Frequencies --   3038.8414              3038.9797              3042.8530
 Red. masses --      1.0590                 1.0380                 1.0392
 Frc consts  --      5.7620                 5.6482                 5.6692
 IR Inten    --     13.9764                23.4296                48.6859

                     85                     86                     87
                      A                      A                      A
 Frequencies --   3051.3801              3057.1772              3057.8696
 Red. masses --      1.0401                 1.0367                 1.0372
 Frc consts  --      5.7056                 5.7087                 5.7142
 IR Inten    --     25.2920                47.7570                 6.0964

                     88                     89                     90
                      A                      A                      A
 Frequencies --   3091.7733              3094.2396              3099.7073
 Red. masses --      1.0979                 1.0983                 1.1019
 Frc consts  --      6.1834                 6.1956                 6.2380
 IR Inten    --     20.6112                31.7798                 0.0522

                     91                     92                     93
                      A                      A                      A
 Frequencies --   3105.0458              3109.6349              3117.6362
 Red. masses --      1.1012                 1.1003                 1.1019
 Frc consts  --      6.2556                 6.2685                 6.3102
 IR Inten    --     36.8117                73.1885                 0.2188

                     94                     95                     96
                      A                      A                      A
 Frequencies --   3121.3324              3121.6972              3123.3449
 Red. masses --      1.0998                 1.0994                 1.1020
 Frc consts  --      6.3132                 6.3122                 6.3337
 IR Inten    --     51.7041                54.0915                34.4169

                     97                     98                     99
                      A                      A                      A
 Frequencies --   3123.7578              3137.1722              3137.4678
 Red. masses --      1.1019                 1.1017                 1.1017
 Frc consts  --      6.3350                 6.3885                 6.3895
 IR Inten    --     25.5083                 0.5375                42.4051

 - Thermochemistry -
 -------------------
 Temperature   298.150 Kelvin.  Pressure   1.00000 Atm.
 Atom     1 has atomic number  8 and mass  15.99491

 Molecular mass:   182.16707 amu.
 Principal axes and moments of inertia in atomic units:
                           1         2         3
     Eigenvalues --  1543.225643414.033374394.27574
           X            0.99999  -0.00000  -0.00428
           Y            0.00000   1.00000  -0.00000
           Z            0.00428   0.00000   0.99999
 This molecule is an asymmetric top.
 Rotational symmetry number  1.
 Warning -- assumption of classical behavior for rotation
           may cause significant error
 Rotational temperatures (Kelvin)      0.05613     0.02537     0.01971
 Rotational constants (GHZ):           1.16946     0.52862     0.41070
 Zero-point vibrational energy     842614.3 (Joules/Mol)
                                  201.38966 (Kcal/Mol)
 Warning -- explicit consideration of  24 degrees of freedom as
           vibrations may cause significant error
 Vibrational temperatures:     44.53    89.81   171.14   172.79   228.68
          (Kelvin)            279.33   292.90   332.80   348.57   350.09
                              378.52   382.64   435.13   436.85   476.93
                              496.93   555.12   561.29   575.00   628.31
                              687.96   750.74   763.35   868.57  1007.65
                             1096.09  1129.28  1244.70  1276.68  1294.59
                             1317.36  1347.13  1353.91  1367.42  1394.61
                             1440.12  1465.86  1467.28  1502.97  1507.31
                             1573.17  1618.47  1631.77  1654.61  1664.18
                             1664.97  1705.46  1763.62  1803.50  1831.46
                             1844.79  1882.35  1912.59  1928.48  1954.41
                             1985.06  1998.74  2021.92  2032.27  2057.80
                             2058.28  2071.40  2073.70  2102.48  2175.03
                             2180.52  2184.23  2187.23  2189.02  2191.93
                             2193.08  2195.54  2203.37  2214.75  2219.56
                             2232.79  2595.78  4287.83  4300.98  4317.12
                             4364.67  4372.21  4372.41  4377.99  4390.26
                             4398.60  4399.59  4448.37  4451.92  4459.79
                             4467.47  4474.07  4485.58  4490.90  4491.43
                             4493.80  4494.39  4513.69  4514.12

 Zero-point correction=                           0.320935 (Hartree/Particle)
 Thermal correction to Energy=                    0.335870
 Thermal correction to Enthalpy=                  0.336814
 Thermal correction to Gibbs Free Energy=         0.280066
 Sum of electronic and zero-point Energies=           -545.450300
 Sum of electronic and thermal Energies=              -545.435365
 Sum of electronic and thermal Enthalpies=            -545.434421
 Sum of electronic and thermal Free Energies=         -545.491169

                     E (Thermal)             CV                S
                      KCal/Mol        Cal/Mol-Kelvin    Cal/Mol-Kelvin
 Total                  210.761             57.696            119.437
 Electronic               0.000              0.000              0.000
 Translational            0.889              2.981             41.506
 Rotational               0.889              2.981             31.516
 Vibrational            208.984             51.734             46.415
 Vibration     1          0.594              1.984              5.768
 Vibration     2          0.597              1.972              4.379
 Vibration     3          0.609              1.934              3.117
 Vibration     4          0.609              1.933              3.099
 Vibration     5          0.621              1.893              2.562
 Vibration     6          0.635              1.848              2.188
 Vibration     7          0.639              1.835              2.101
 Vibration     8          0.653              1.793              1.869
 Vibration     9          0.658              1.776              1.786
 Vibration    10          0.659              1.774              1.778
 Vibration    11          0.670              1.741              1.641
 Vibration    12          0.672              1.736              1.622
 Vibration    13          0.694              1.669              1.403
 Vibration    14          0.695              1.667              1.397
 Vibration    15          0.714              1.613              1.253
 Vibration    16          0.724              1.585              1.187
 Vibration    17          0.755              1.500              1.016
 Vibration    18          0.758              1.491              1.000
 Vibration    19          0.766              1.471              0.964
 Vibration    20          0.797              1.390              0.837
 Vibration    21          0.835              1.299              0.715
 Vibration    22          0.877              1.202              0.606
 Vibration    23          0.886              1.182              0.586
 Vibration    24          0.962              1.024              0.443

 Normal termination of Gaussian 16 at Sat Feb 24 03:12:52 2024.
