 Gaussian 16, Revision A.03,
 Gaussian 16:  EM64M-G16RevA.03 25-Dec-2016

 ---------------------
 # freq b3lyp/6-31g(d)
 ---------------------

 ---------
 good luck
 ---------
 Symbolic Z-matrix:
 Charge =  0 Multiplicity = 1

                         Standard orientation:
 ---------------------------------------------------------------------
 Center     Atomic      Atomic             Coordinates (Angstroms)
 Number     Number       Type             X           Y           Z
 ---------------------------------------------------------------------
      1          8           0       -0.000000   -1.958315   -0.417156
      2          6           0       -0.000000   -0.846756    0.080148
      3          6           0       -1.296584   -0.096917    0.401895
      4          6           0       -2.539064   -0.910262    0.038707
      5          6           0       -1.267010    1.291969   -0.282752
      6          6           0        0.000000    2.083971    0.064447
      7          6           0        1.267010    1.291968   -0.282753
      8          6           0        1.296584   -0.096918    0.401895
      9          6           0        2.539064   -0.910263    0.038707
     10          1           0       -1.285192    0.081594    1.490114
     11          1           0       -2.540180   -1.878846    0.546783
     12          1           0       -3.448633   -0.367599    0.319896
     13          1           0       -2.574219   -1.108214   -1.037737
     14          1           0       -2.164769    1.853708    0.004726
     15          1           0       -1.324065    1.149331   -1.371872
     16          1           0        0.000001    2.321769    1.138331
     17          1           0        0.000001    3.044054   -0.466656
     18          1           0        2.164768    1.853707    0.004725
     19          1           0        1.324065    1.149331   -1.371872
     20          1           0        1.285192    0.081593    1.490114
     21          1           0        2.574219   -1.108214   -1.037738
     22          1           0        3.448633   -0.367600    0.319895
     23          1           0        2.540180   -1.878846    0.546784
 ---------------------------------------------------------------------

 SCF Done:  E(RB3LYP) =  -388.522571830     A.U. after   13 cycles

 The electronic state is 1-A.
 Alpha  occ. eigenvalues --  -19.13362 -10.26394 -10.19551 -10.19550 -10.19124
 Alpha  occ. eigenvalues --  -10.19124 -10.18944 -10.17173 -10.17173  -1.03213
 Alpha  occ. eigenvalues --   -0.83536  -0.78251  -0.74410  -0.67779  -0.66427
 Alpha  occ. eigenvalues --   -0.58952  -0.58528  -0.52363  -0.47750  -0.46337
 Alpha  occ. eigenvalues --   -0.44564  -0.43612  -0.42762  -0.40636  -0.38909
 Alpha  occ. eigenvalues --   -0.38898  -0.37243  -0.36740  -0.35680  -0.35022
 Alpha  occ. eigenvalues --   -0.33371  -0.32990  -0.32516  -0.31180  -0.23412
 Alpha virt. eigenvalues --   -0.01093   0.08929   0.10382   0.11251   0.11516
 Alpha virt. eigenvalues --    0.14709   0.15559   0.15946   0.16365   0.17126
 Alpha virt. eigenvalues --    0.17288   0.18057   0.18679   0.18842   0.20163

 Mulliken charges:
               1
     1  O   -0.455079
     2  C    0.449442
     3  C   -0.164840
     4  C   -0.437183
     5  C   -0.263764
     6  C   -0.270087
     7  C   -0.263764
     8  C   -0.164840
     9  C   -0.437183
    10  H    0.139616
    11  H    0.158079
    12  H    0.134985
    13  H    0.154532
    14  H    0.140449
    15  H    0.140212
    16  H    0.132111
    17  H    0.139445
    18  H    0.140449
    19  H    0.140212
    20  H    0.139616
    21  H    0.154531
    22  H    0.134985
    23  H    0.158079
 Sum of Mulliken charges =  -0.00000

 Dipole moment (field-independent basis, Debye):
    X=              0.0000    Y=              2.6076    Z=              0.9764  Tot=              2.7844
 Quadrupole moment (field-independent basis, Debye-Ang):
   XX=            -55.0300   YY=            -61.5646   ZZ=            -55.1289
   XY=              0.0000   XZ=              0.0000   YZ=             -2.0093

  Exact polarizability:  90.886  -0.000  87.705  -0.000   1.793  69.520
 Approx polarizability: 110.963   0.000 125.910   0.000   8.075 110.492

                      1                      2                      3
                      A                      A                      A
 Frequencies --     77.3210               128.2297               194.4968
 Red. masses --      5.0251                 2.1636                 1.1524
 Frc consts  --      0.0177                 0.0210                 0.0257
 IR Inten    --      1.6905                 0.0207                 0.1402

                      4                      5                      6
                      A                      A                      A
 Frequencies --    204.0650               238.2311               275.4872
 Red. masses --      1.0336                 2.2351                 2.3751
 Frc consts  --      0.0254                 0.0747                 0.1062
 IR Inten    --      0.0530                 0.3704                 0.2579

                      7                      8                      9
                      A                      A                      A
 Frequencies --    310.7462               319.7636               365.7449
 Red. masses --      1.8677                 3.3585                 2.9454
 Frc consts  --      0.1063                 0.2023                 0.2321
 IR Inten    --      0.1778                 8.7095                 0.7285

                     10                     11                     12
                      A                      A                      A
 Frequencies --    402.7336               418.5357               538.2340
 Red. masses --      3.5380                 3.3900                 2.3557
 Frc consts  --      0.3381                 0.3499                 0.4021
 IR Inten    --      3.8785                 0.6491                 0.2141

                     13                     14                     15
                      A                      A                      A
 Frequencies --    593.8294               674.2234               763.2512
 Red. masses --      3.1438                 3.0424                 2.4774
 Frc consts  --      0.6532                 0.8149                 0.8503
 IR Inten    --      1.9629                 1.3508                 3.1269

                     16                     17                     18
                      A                      A                      A
 Frequencies --    844.3258               860.0935               871.2131
 Red. masses --      2.0950                 1.8829                 1.5740
 Frc consts  --      0.8799                 0.8207                 0.7039
 IR Inten    --      0.0470                 0.0666                10.0235

                     19                     20                     21
                      A                      A                      A
 Frequencies --    915.1722               965.4160               994.5343
 Red. masses --      2.6112                 1.2790                 2.5077
 Frc consts  --      1.2885                 0.7023                 1.4614
 IR Inten    --      0.0095                 9.4441                16.7209

                     22                     23                     24
                      A                      A                      A
 Frequencies --    997.2118              1014.8537              1066.0785
 Red. masses --      1.5893                 1.4439                 1.4240
 Frc consts  --      0.9312                 0.8762                 0.9535
 IR Inten    --      1.7953                 8.2032                 1.3303

                     25                     26                     27
                      A                      A                      A
 Frequencies --   1090.2560              1130.2079              1153.4191
 Red. masses --      1.4061                 2.5515                 1.5811
 Frc consts  --      0.9848                 1.9203                 1.2393
 IR Inten    --      3.2994                 0.8415                12.8067

                     28                     29                     30
                      A                      A                      A
 Frequencies --   1154.1131              1156.3910              1187.7281
 Red. masses --      2.0777                 2.2564                 2.3108
 Frc consts  --      1.6306                 1.7778                 1.9206
 IR Inten    --      1.5686                24.7203                 0.0916

                     31                     32                     33
                      A                      A                      A
 Frequencies --   1256.9666              1281.0062              1331.9416
 Red. masses --      1.3611                 1.4017                 1.2645
 Frc consts  --      1.2670                 1.3552                 1.3217
 IR Inten    --      3.6354                 0.1327                 0.6853

                     34                     35                     36
                      A                      A                      A
 Frequencies --   1336.0001              1358.4572              1363.4221
 Red. masses --      1.2655                 1.4177                 1.3374
 Frc consts  --      1.3309                 1.5414                 1.4648
 IR Inten    --      0.4976                 1.6977                 6.5976

                     37                     38                     39
                      A                      A                      A
 Frequencies --   1395.4293              1402.3822              1406.8403
 Red. masses --      1.4129                 1.5941                 1.8896
 Frc consts  --      1.6210                 1.8472                 2.2034
 IR Inten    --      3.6772                 0.6122                 7.4918

                     40                     41                     42
                      A                      A                      A
 Frequencies --   1440.2113              1441.2617              1515.4377
 Red. masses --      1.2300                 1.2488                 1.0829
 Frc consts  --      1.5032                 1.5284                 1.4653
 IR Inten    --      3.3960                 5.0486                 0.8553

                     43                     44                     45
                      A                      A                      A
 Frequencies --   1516.7014              1521.8922              1522.2241
 Red. masses --      1.0747                 1.0511                 1.0444
 Frc consts  --      1.4566                 1.4344                 1.4259
 IR Inten    --      4.3352                11.8364                 0.5876

                     46                     47                     48
                      A                      A                      A
 Frequencies --   1525.1003              1525.5165              1533.1058
 Red. masses --      1.0559                 1.0583                 1.0893
 Frc consts  --      1.4470                 1.4510                 1.5084
 IR Inten    --      3.2808                 8.3298                 3.0321

                     49                     50                     51
                      A                      A                      A
 Frequencies --   1803.2120              2988.6564              2999.4965
 Red. masses --     11.6589                 1.0808                 1.0814
 Frc consts  --     22.3357                 5.6881                 5.7325
 IR Inten    --    139.9647                 3.4173                18.9508

                     52                     53                     54
                      A                      A                      A
 Frequencies --   3023.8144              3026.9817              3031.3296
 Red. masses --      1.0705                 1.0633                 1.0602
 Frc consts  --      5.7670                 5.7404                 5.7399
 IR Inten    --     13.6155                24.5049                41.6417

                     55                     56                     57
                      A                      A                      A
 Frequencies --   3057.5651              3058.0540              3072.7812
 Red. masses --      1.0369                 1.0373                 1.1004
 Frc consts  --      5.7113                 5.7152                 6.1217
 IR Inten    --     47.1185                 6.2710                37.7999

                     58                     59                     60
                      A                      A                      A
 Frequencies --   3074.0201              3079.8063              3123.6041
 Red. masses --      1.0922                 1.1047                 1.1023
 Frc consts  --      6.0811                 6.1735                 6.3367
 IR Inten    --     46.5580                53.3919                15.0126

                     61                     62                     63
                      A                      A                      A
 Frequencies --   3124.0164              3137.5288              3137.8202
 Red. masses --      1.1022                 1.1018                 1.1017
 Frc consts  --      6.3378                 6.3903                 6.3913
 IR Inten    --     40.8587                 0.5408                41.3694

 - Thermochemistry -
 -------------------
 Temperature   298.150 Kelvin.  Pressure   1.00000 Atm.
 Atom     1 has atomic number  8 and mass  15.99491

 Molecular mass:   126.10447 amu.
 Principal axes and moments of inertia in atomic units:
                           1         2         3
     Eigenvalues --   849.200931148.963681844.61145
           X            1.00000  -0.00000  -0.00000
           Y            0.00000   0.99997  -0.00832
           Z            0.00000   0.00832   0.99997
 This molecule is an asymmetric top.
 Rotational symmetry number  1.
 Warning -- assumption of classical behavior for rotation
           may cause significant error
 Rotational temperatures (Kelvin)      0.10199     0.07538     0.04696
 Rotational constants (GHZ):           2.12522     1.57076     0.97839
 Zero-point vibrational energy     546205.9 (Joules/Mol)
                                  130.54634 (Kcal/Mol)
 Warning -- explicit consideration of  13 degrees of freedom as
           vibrations may cause significant error
 Vibrational temperatures:    111.25   184.49   279.84   293.60   342.76
          (Kelvin)            396.36   447.09   460.07   526.23   579.44
                              602.18   774.40   854.39   970.06  1098.15
                             1214.80  1237.48  1253.48  1316.73  1389.02
                             1430.91  1434.77  1460.15  1533.85  1568.64
                             1626.12  1659.51  1660.51  1663.79  1708.88
                             1808.49  1843.08  1916.37  1922.21  1954.52
                             1961.66  2007.71  2017.72  2024.13  2072.14
                             2073.65  2180.38  2182.20  2189.66  2190.14
                             2194.28  2194.88  2205.80  2594.42  4300.01
                             4315.61  4350.59  4355.15  4361.41  4399.15
                             4399.86  4421.05  4422.83  4431.15  4494.17
                             4494.76  4514.20  4514.62

 Zero-point correction=                           0.208039 (Hartree/Particle)
 Thermal correction to Energy=                    0.217407
 Thermal correction to Enthalpy=                  0.218351
 Thermal correction to Gibbs Free Energy=         0.174207
 Sum of electronic and zero-point Energies=           -388.314533
 Sum of electronic and thermal Energies=              -388.305165
 Sum of electronic and thermal Enthalpies=            -388.304221
 Sum of electronic and thermal Free Energies=         -388.348365

                     E (Thermal)             CV                S
                      KCal/Mol        Cal/Mol-Kelvin    Cal/Mol-Kelvin
 Total                  136.425             35.883             92.909
 Electronic               0.000              0.000              0.000
 Translational            0.889              2.981             40.409
 Rotational               0.889              2.981             28.977
 Vibrational            134.647             29.921             23.522
 Vibration     1          0.599              1.964              3.958
 Vibration     2          0.611              1.925              2.972
 Vibration     3          0.635              1.848              2.185
 Vibration     4          0.640              1.834              2.096
 Vibration     5          0.656              1.782              1.816
 Vibration     6          0.677              1.719              1.562
 Vibration     7          0.700              1.653              1.358
 Vibration     8          0.706              1.636              1.311
 Vibration     9          0.739              1.543              1.098
 Vibration    10          0.768              1.464              0.953
 Vibration    11          0.781              1.430              0.897
 Vibration    12          0.893              1.165              0.569
 Vibration    13          0.951              1.045              0.460

 Normal termination of Gaussian 16 at Wed Feb 21 19:06:12 2024.
