 Gaussian 16, Revision A.03,
 Gaussian 16:  EM64M-G16RevA.03 25-Dec-2016

 ---------------------
 # freq b3lyp/6-31g(d)
 ---------------------

 ---------
 good luck
 ---------
 Symbolic Z-matrix:
 Charge =  0 Multiplicity = 1

                         Standard orientation:
 ---------------------------------------------------------------------
 Center     Atomic      Atomic             Coordinates (Angstroms)
 Number     Number       Type             X           Y           Z
 ---------------------------------------------------------------------
      1          8           0       -4.216024    0.531068   -1.826462
      2          6           0       -3.555500    0.048851   -0.927116
      3          6           0       -2.045752   -0.140382   -1.045297
      4          6           0       -1.294495    0.403563    0.200390
      5          6           0        0.205893    0.188877    0.095963
      6          6           0        0.790952   -1.078596    0.016661
      7          9           0        0.015235   -2.182113    0.029692
      8          6           0        2.166482   -1.268130   -0.080479
      9          9           0        2.677541   -2.501847   -0.157568
     10          6           0        3.012191   -0.161570   -0.095762
     11          9           0        4.334109   -0.327901   -0.186332
     12          6           0        2.469627    1.117238   -0.015787
     13          9           0        3.272338    2.186749   -0.028419
     14          6           0        1.088213    1.273031    0.077993
     15          9           0        0.612987    2.529053    0.153615
     16          6           0       -1.891291   -0.176010    1.503051
     17          6           0       -3.392231    0.129958    1.601097
     18          6           0       -4.169087   -0.416527    0.386063
     19          1           0       -1.848007   -1.215955   -1.142360
     20          1           0       -1.706425    0.349883   -1.962049
     21          1           0       -1.450592    1.487434    0.225859
     22          1           0       -1.728157   -1.260270    1.531423
     23          1           0       -1.364557    0.249253    2.365686
     24          1           0       -3.803684   -0.295113    2.523839
     25          1           0       -3.539431    1.216850    1.664977
     26          1           0       -5.221954   -0.121271    0.403361
     27          1           0       -4.128891   -1.516627    0.401393
 ---------------------------------------------------------------------

 SCF Done:  E(RB3LYP) =  -1037.07449306     A.U. after   14 cycles

 The electronic state is 1-A.
 Alpha  occ. eigenvalues --  -24.74256 -24.74209 -24.73980 -24.73890 -24.73827
 Alpha  occ. eigenvalues --  -19.14207 -10.31279 -10.30892 -10.30838 -10.30833
 Alpha  occ. eigenvalues --  -10.30776 -10.27868 -10.23934 -10.22822 -10.20494
 Alpha  occ. eigenvalues --  -10.20413 -10.20275 -10.19947  -1.26530  -1.25866
 Alpha  occ. eigenvalues --   -1.25305  -1.24480  -1.24145  -1.04117  -0.90988
 Alpha  occ. eigenvalues --   -0.85359  -0.80352  -0.78402  -0.75860  -0.73759
 Alpha  occ. eigenvalues --   -0.67960  -0.66671  -0.63340  -0.61191  -0.59753
 Alpha  occ. eigenvalues --   -0.59119  -0.57205  -0.54802  -0.54479  -0.53972
 Alpha  occ. eigenvalues --   -0.52594  -0.51962  -0.49812  -0.48831  -0.48520
 Alpha  occ. eigenvalues --   -0.47048  -0.46646  -0.46486  -0.46311  -0.44834
 Alpha  occ. eigenvalues --   -0.44570  -0.43878  -0.43324  -0.42595  -0.41806
 Alpha  occ. eigenvalues --   -0.40876  -0.39684  -0.38768  -0.37152  -0.36750
 Alpha  occ. eigenvalues --   -0.35941  -0.34494  -0.34103  -0.33605  -0.26832
 Alpha  occ. eigenvalues --   -0.26135  -0.24438
 Alpha virt. eigenvalues --   -0.03513  -0.02172  -0.01875   0.00798   0.08295
 Alpha virt. eigenvalues --    0.09356   0.10483   0.11996   0.13281   0.13502
 Alpha virt. eigenvalues --    0.14501   0.15101   0.15680   0.15973   0.16611

 Mulliken charges:
               1
     1  O   -0.440065
     2  C    0.451274
     3  C   -0.354675
     4  C   -0.188112
     5  C    0.015125
     6  C    0.271426
     7  F   -0.279018
     8  C    0.264512
     9  F   -0.265427
    10  C    0.260394
    11  F   -0.261960
    12  C    0.262623
    13  F   -0.264926
    14  C    0.261346
    15  F   -0.275166
    16  C   -0.270253
    17  C   -0.277608
    18  C   -0.344069
    19  H    0.172586
    20  H    0.170541
    21  H    0.164253
    22  H    0.151904
    23  H    0.148256
    24  H    0.150461
    25  H    0.149440
    26  H    0.167922
    27  H    0.159217
 Sum of Mulliken charges =  -0.00000

 Dipole moment (field-independent basis, Debye):
    X=             -0.1486    Y=             -0.8917    Z=              2.4375  Tot=              2.5998
 Quadrupole moment (field-independent basis, Debye-Ang):
   XX=           -111.9534   YY=           -103.5699   ZZ=           -100.2033
   XY=              4.2323   XZ=            -11.0300   YZ=              1.7683

  Exact polarizability: 166.428  -1.000 116.791  -1.864  -1.625  88.505
 Approx polarizability: 228.312  -3.757 213.886   1.546  -4.005 132.222

                      1                      2                      3
                      A                      A                      A
 Frequencies --     40.4779                53.7385                67.2273
 Red. masses --      7.3107                10.3374                 4.2998
 Frc consts  --      0.0071                 0.0176                 0.0114
 IR Inten    --      1.5246                 1.0899                 0.5863

                      4                      5                      6
                      A                      A                      A
 Frequencies --    103.7636               135.0880               150.9439
 Red. masses --      3.3907                15.4947                11.7515
 Frc consts  --      0.0215                 0.1666                 0.1578
 IR Inten    --      1.7569                 0.1766                 0.8187

                      7                      8                      9
                      A                      A                      A
 Frequencies --    173.6539               193.2962               212.4294
 Red. masses --      4.4255                 8.4930                 6.2474
 Frc consts  --      0.0786                 0.1870                 0.1661
 IR Inten    --      0.6981                 1.5164                 2.3833

                     10                     11                     12
                      A                      A                      A
 Frequencies --    246.6605               262.4865               268.4569
 Red. masses --      7.5163                 4.8500                 3.6244
 Frc consts  --      0.2694                 0.1969                 0.1539
 IR Inten    --      1.1361                 0.4543                 0.3405

                     13                     14                     15
                      A                      A                      A
 Frequencies --    274.3872               308.6913               351.0582
 Red. masses --     13.4580                17.6506                14.2048
 Frc consts  --      0.5970                 0.9910                 1.0314
 IR Inten    --      0.0612                 1.2526                 1.5653

                     16                     17                     18
                      A                      A                      A
 Frequencies --    389.6888               395.4310               405.6846
 Red. masses --     12.5330                 3.3160                 7.8675
 Frc consts  --      1.1213                 0.3055                 0.7629
 IR Inten    --      0.0054                 0.9849                 2.9974

                     19                     20                     21
                      A                      A                      A
 Frequencies --    436.6567               449.2102               463.0360
 Red. masses --      4.0421                 8.7366                 1.9853
 Frc consts  --      0.4541                 1.0387                 0.2508
 IR Inten    --      0.5014                 0.0734                 0.3486

                     22                     23                     24
                      A                      A                      A
 Frequencies --    487.9810               512.3818               566.5815
 Red. masses --      5.6910                 3.5793                12.1268
 Frc consts  --      0.7984                 0.5537                 2.2936
 IR Inten    --      3.0102                13.2083                 0.0450

                     25                     26                     27
                      A                      A                      A
 Frequencies --    577.7292               612.3270               623.2432
 Red. masses --     14.5572                 5.4946                12.1566
 Frc consts  --      2.8627                 1.2138                 2.7821
 IR Inten    --      0.1615                 1.1587                 0.0117

                     28                     29                     30
                      A                      A                      A
 Frequencies --    659.7157               696.3953               758.6529
 Red. masses --      8.5428                 3.8919                 3.1728
 Frc consts  --      2.1906                 1.1121                 1.0759
 IR Inten    --      1.3151                16.1054                 3.4459

                     31                     32                     33
                      A                      A                      A
 Frequencies --    772.8349               842.6015               879.7145
 Red. masses --      3.5647                 2.5478                 2.1345
 Frc consts  --      1.2544                 1.0658                 0.9733
 IR Inten    --      1.2059                 8.9728                 3.6122

                     34                     35                     36
                      A                      A                      A
 Frequencies --    889.0437               912.5844               961.7027
 Red. masses --      1.5574                 2.4721                 2.7342
 Frc consts  --      0.7253                 1.2130                 1.4899
 IR Inten    --     11.9753                 1.3360                58.4626

                     37                     38                     39
                      A                      A                      A
 Frequencies --    994.4845              1030.0635              1049.9177
 Red. masses --      4.8876                 5.1712                 2.0419
 Frc consts  --      2.8480                 3.2327                 1.3262
 IR Inten    --    112.5355                76.6368                 8.0618

                     40                     41                     42
                      A                      A                      A
 Frequencies --   1083.2158              1091.7531              1133.1756
 Red. masses --      1.2188                 2.8676                 2.3306
 Frc consts  --      0.8426                 2.0138                 1.7633
 IR Inten    --     11.0854                 2.8400                13.7033

                     43                     44                     45
                      A                      A                      A
 Frequencies --   1155.6515              1172.0293              1214.8318
 Red. masses --      7.5324                11.6109                 1.8128
 Frc consts  --      5.9270                 9.3971                 1.5763
 IR Inten    --     70.4556                 8.4228                18.9091

                     46                     47                     48
                      A                      A                      A
 Frequencies --   1249.9380              1259.2430              1291.6529
 Red. masses --      1.6901                 1.3645                 1.6829
 Frc consts  --      1.5558                 1.2748                 1.6543
 IR Inten    --     43.5371                 7.1541                25.5815

                     49                     50                     51
                      A                      A                      A
 Frequencies --   1310.6226              1328.7080              1340.1127
 Red. masses --      1.3723                 2.4653                 9.1205
 Frc consts  --      1.3888                 2.5643                 9.6505
 IR Inten    --      2.0494                 5.4705                14.9553

                     52                     53                     54
                      A                      A                      A
 Frequencies --   1355.1847              1367.3913              1385.2872
 Red. masses --      1.5518                 1.3745                 1.3390
 Frc consts  --      1.6791                 1.5142                 1.5139
 IR Inten    --      4.5193                 7.5731                14.8390

                     55                     56                     57
                      A                      A                      A
 Frequencies --   1393.1015              1418.3579              1452.3696
 Red. masses --      1.4554                 1.5813                 9.6436
 Frc consts  --      1.6641                 1.8743                11.9852
 IR Inten    --     15.6069                18.3621                 6.0110

                     58                     59                     60
                      A                      A                      A
 Frequencies --   1492.4459              1501.6921              1522.5144
 Red. masses --      1.0958                 1.0891                 1.0919
 Frc consts  --      1.4381                 1.4471                 1.4913
 IR Inten    --      7.2291                 5.8270                15.4631

                     61                     62                     63
                      A                      A                      A
 Frequencies --   1530.1890              1540.6617              1558.3622
 Red. masses --      1.1072                 7.4763                12.4071
 Frc consts  --      1.5274                10.4557                17.7524
 IR Inten    --      2.2717               281.7959               204.6843

                     64                     65                     66
                      A                      A                      A
 Frequencies --   1669.2483              1686.1703              1820.3829
 Red. masses --     10.7842                12.0066                11.0438
 Frc consts  --     17.7044                20.1128                21.5622
 IR Inten    --      5.5146                22.2511               203.7431

                     67                     68                     69
                      A                      A                      A
 Frequencies --   3023.7334              3041.6978              3055.3466
 Red. masses --      1.0697                 1.0644                 1.0608
 Frc consts  --      5.7621                 5.8023                 5.8343
 IR Inten    --      6.0710                28.7964                14.5753

                     70                     71                     72
                      A                      A                      A
 Frequencies --   3058.0705              3075.7972              3088.1070
 Red. masses --      1.0653                 1.0835                 1.0983
 Frc consts  --      5.8699                 6.0392                 6.1713
 IR Inten    --      5.8784                 4.7582                33.2441

                     73                     74                     75
                      A                      A                      A
 Frequencies --   3102.1434              3122.5019              3127.4960
 Red. masses --      1.1024                 1.0945                 1.1005
 Frc consts  --      6.2506                 6.2875                 6.3418
 IR Inten    --     30.3838                20.1983                10.8347

 - Thermochemistry -
 -------------------
 Temperature   298.150 Kelvin.  Pressure   1.00000 Atm.
 Atom     1 has atomic number  8 and mass  15.99491

 Molecular mass:   264.05736 amu.
 Principal axes and moments of inertia in atomic units:
                           1         2         3
     Eigenvalues --  2401.013897507.293548755.91525
           X            0.99994   0.00316  -0.01091
           Y           -0.00318   0.99999  -0.00134
           Z            0.01090   0.00138   0.99994
 This molecule is an asymmetric top.
 Rotational symmetry number  1.
 Warning -- assumption of classical behavior for rotation
           may cause significant error
 Rotational temperatures (Kelvin)      0.03607     0.01154     0.00989
 Rotational constants (GHZ):           0.75166     0.24040     0.20612
 Zero-point vibrational energy     503802.5 (Joules/Mol)
                                  120.41170 (Kcal/Mol)
 Warning -- explicit consideration of  26 degrees of freedom as
           vibrations may cause significant error
 Vibrational temperatures:     58.24    77.32    96.73   149.29   194.36
          (Kelvin)            217.17   249.85   278.11   305.64   354.89
                              377.66   386.25   394.78   444.14   505.09
                              560.68   568.94   583.69   628.25   646.31
                              666.21   702.10   737.20   815.18   831.22
                              881.00   896.71   949.18  1001.96  1091.53
                             1111.94  1212.32  1265.71  1279.14  1313.01
                             1383.68  1430.84  1482.03  1510.60  1558.51
                             1570.79  1630.39  1662.72  1686.29  1747.87
                             1798.38  1811.77  1858.40  1885.69  1911.71
                             1928.12  1949.81  1967.37  1993.12  2004.36
                             2040.70  2089.64  2147.30  2160.60  2190.56
                             2201.60  2216.67  2242.14  2401.68  2426.02
                             2619.12  4350.48  4376.32  4395.96  4399.88
                             4425.39  4443.10  4463.29  4492.58  4499.77

 Zero-point correction=                           0.191888 (Hartree/Particle)
 Thermal correction to Energy=                    0.207507
 Thermal correction to Enthalpy=                  0.208451
 Thermal correction to Gibbs Free Energy=         0.148549
 Sum of electronic and zero-point Energies=          -1036.882605
 Sum of electronic and thermal Energies=             -1036.866987
 Sum of electronic and thermal Enthalpies=           -1036.866042
 Sum of electronic and thermal Free Energies=        -1036.925944

                     E (Thermal)             CV                S
                      KCal/Mol        Cal/Mol-Kelvin    Cal/Mol-Kelvin
 Total                  130.212             58.885            126.074
 Electronic               0.000              0.000              0.000
 Translational            0.889              2.981             42.612
 Rotational               0.889              2.981             33.423
 Vibrational            128.435             52.924             50.039
 Vibration     1          0.594              1.981              5.236
 Vibration     2          0.596              1.976              4.675
 Vibration     3          0.598              1.970              4.233
 Vibration     4          0.605              1.946              3.382
 Vibration     5          0.613              1.918              2.872
 Vibration     6          0.618              1.902              2.660
 Vibration     7          0.627              1.875              2.396
 Vibration     8          0.635              1.849              2.196
 Vibration     9          0.643              1.822              2.023
 Vibration    10          0.661              1.768              1.754
 Vibration    11          0.670              1.742              1.645
 Vibration    12          0.673              1.731              1.606
 Vibration    13          0.677              1.721              1.568
 Vibration    14          0.698              1.657              1.369
 Vibration    15          0.728              1.573              1.161
 Vibration    16          0.758              1.492              1.001
 Vibration    17          0.762              1.480              0.980
 Vibration    18          0.771              1.458              0.942
 Vibration    19          0.797              1.390              0.837
 Vibration    20          0.808              1.363              0.798
 Vibration    21          0.821              1.332              0.757
 Vibration    22          0.844              1.277              0.689
 Vibration    23          0.867              1.223              0.628
 Vibration    24          0.922              1.104              0.511
 Vibration    25          0.934              1.079              0.490
 Vibration    26          0.972              1.006              0.429

 Normal termination of Gaussian 16 at Fri Feb 23 21:23:00 2024.
