 Gaussian 16, Revision A.03,
 Gaussian 16:  EM64M-G16RevA.03 25-Dec-2016

 ---------------------
 # freq b3lyp/6-31g(d)
 ---------------------

 ---------
 good luck
 ---------
 Symbolic Z-matrix:
 Charge =  0 Multiplicity = 1

                         Standard orientation:
 ---------------------------------------------------------------------
 Center     Atomic      Atomic             Coordinates (Angstroms)
 Number     Number       Type             X           Y           Z
 ---------------------------------------------------------------------
      1          8           0       -3.503765    0.447114   -0.249537
      2          6           0       -2.331218    0.283550    0.040761
      3          6           0       -1.490680    1.459224    0.525767
      4          6           0       -0.284466    1.792267   -0.392337
      5          6           0        0.903036    0.867750   -0.232975
      6          6           0        2.117905    1.375627    0.242894
      7          6           0        3.233324    0.555588    0.415277
      8          6           0        3.140938   -0.801118    0.110991
      9          6           0        1.934731   -1.318820   -0.361625
     10          6           0        0.808501   -0.505992   -0.541662
     11          6           0       -0.477437   -1.110541   -1.065311
     12          6           0       -1.693076   -1.101240   -0.092729
     13          6           0       -1.354442   -1.706562    1.281865
     14          1           0       -2.166306    2.318046    0.577032
     15          1           0       -1.119590    1.259493    1.539804
     16          1           0        0.033323    2.816122   -0.167671
     17          1           0       -0.628821    1.804816   -1.436460
     18          1           0        2.189504    2.435143    0.479173
     19          1           0        4.165350    0.975882    0.783506
     20          1           0        3.999955   -1.454359    0.238530
     21          1           0        1.863654   -2.377309   -0.602240
     22          1           0       -0.286849   -2.156625   -1.332576
     23          1           0       -0.779260   -0.611495   -1.997522
     24          1           0       -2.476447   -1.712741   -0.554577
     25          1           0       -0.988810   -2.733010    1.160950
     26          1           0       -0.575520   -1.139255    1.800725
     27          1           0       -2.242763   -1.740030    1.922133
 ---------------------------------------------------------------------

 SCF Done:  E(RB3LYP) =  -540.940859554     A.U. after   15 cycles

 The electronic state is 1-A.
 Alpha  occ. eigenvalues --  -19.13334 -10.26792 -10.20074 -10.19875 -10.19845
 Alpha  occ. eigenvalues --  -10.19798 -10.19777 -10.19328 -10.19120 -10.19082
 Alpha  occ. eigenvalues --  -10.19047 -10.19024 -10.18466  -1.03232  -0.86529
 Alpha  occ. eigenvalues --   -0.81339  -0.79039  -0.75403  -0.73727  -0.68925
 Alpha  occ. eigenvalues --   -0.65343  -0.63002  -0.60296  -0.56577  -0.52730
 Alpha  occ. eigenvalues --   -0.50177  -0.47427  -0.46645  -0.46154  -0.45729
 Alpha  occ. eigenvalues --   -0.42799  -0.42336  -0.42028  -0.41567  -0.39602
 Alpha  occ. eigenvalues --   -0.38932  -0.38045  -0.36256  -0.35795  -0.35606
 Alpha  occ. eigenvalues --   -0.34927  -0.33767  -0.33245  -0.32269  -0.24973
 Alpha  occ. eigenvalues --   -0.24133  -0.23488
 Alpha virt. eigenvalues --   -0.01310  -0.00552  -0.00124   0.08236   0.09692
 Alpha virt. eigenvalues --    0.10832   0.10997   0.12653   0.14126   0.15211
 Alpha virt. eigenvalues --    0.15650   0.16266   0.17163   0.17386   0.18209

 Mulliken charges:
               1
     1  O   -0.447801
     2  C    0.449165
     3  C   -0.342301
     4  C   -0.370493
     5  C    0.127160
     6  C   -0.192609
     7  C   -0.126417
     8  C   -0.126298
     9  C   -0.192761
    10  C    0.135060
    11  C   -0.379344
    12  C   -0.146720
    13  C   -0.465156
    14  H    0.165356
    15  H    0.160322
    16  H    0.154013
    17  H    0.159566
    18  H    0.124709
    19  H    0.129781
    20  H    0.129647
    21  H    0.124317
    22  H    0.149348
    23  H    0.156887
    24  H    0.153208
    25  H    0.151342
    26  H    0.161229
    27  H    0.158787
 Sum of Mulliken charges =  -0.00000

 Dipole moment (field-independent basis, Debye):
    X=              2.6349    Y=             -0.3938    Z=              0.5583  Tot=              2.7220
 Quadrupole moment (field-independent basis, Debye-Ang):
   XX=            -88.5332   YY=            -70.9063   ZZ=            -77.3712
   XY=              1.9456   XZ=             -0.3764   YZ=              1.4983

  Exact polarizability: 153.301  -3.449 125.530  12.926   6.944  77.769
 Approx polarizability: 225.694  -8.193 200.373  29.741  15.414 121.713

                      1                      2                      3
                      A                      A                      A
 Frequencies --     49.3281                81.7129               118.9561
 Red. masses --      6.4474                 3.3249                 3.8381
 Frc consts  --      0.0092                 0.0131                 0.0320
 IR Inten    --      3.1998                 0.3385                 1.4154

                      4                      5                      6
                      A                      A                      A
 Frequencies --    169.1956               222.6016               236.6214
 Red. masses --      3.0421                 1.6765                 1.5793
 Frc consts  --      0.0513                 0.0489                 0.0521
 IR Inten    --      0.4395                 0.3668                 0.2098

                      7                      8                      9
                      A                      A                      A
 Frequencies --    259.5675               315.4099               345.7973
 Red. masses --      2.8539                 2.4463                 4.1787
 Frc consts  --      0.1133                 0.1434                 0.2944
 IR Inten    --      0.9833                 0.4861                 1.7850

                     10                     11                     12
                      A                      A                      A
 Frequencies --    357.6955               400.9562               463.9325
 Red. masses --      3.1432                 2.2460                 3.1969
 Frc consts  --      0.2369                 0.2127                 0.4054
 IR Inten    --      2.9982                 0.4933                 3.1595

                     13                     14                     15
                      A                      A                      A
 Frequencies --    492.9533               520.1047               548.8070
 Red. masses --      3.1028                 4.2967                 3.1596
 Frc consts  --      0.4442                 0.6848                 0.5607
 IR Inten    --      4.6655                 3.3410                 1.3518

                     16                     17                     18
                      A                      A                      A
 Frequencies --    588.9381               641.3289               680.7396
 Red. masses --      3.7163                 3.5255                 4.0662
 Frc consts  --      0.7594                 0.8543                 1.1102
 IR Inten    --      2.2507                 1.7164                 1.2614

                     19                     20                     21
                      A                      A                      A
 Frequencies --    733.1662               751.9322               765.5671
 Red. masses --      3.2866                 2.0140                 3.3744
 Frc consts  --      1.0409                 0.6709                 1.1652
 IR Inten    --      1.3821                17.6404                 3.6187

                     22                     23                     24
                      A                      A                      A
 Frequencies --    785.3852               835.9952               883.5289
 Red. masses --      1.7454                 2.9219                 1.9203
 Frc consts  --      0.6343                 1.2032                 0.8832
 IR Inten    --     17.6684                 0.5029                11.8050

                     25                     26                     27
                      A                      A                      A
 Frequencies --    889.5896               912.7321               938.1888
 Red. masses --      1.4445                 2.4400                 1.8557
 Frc consts  --      0.6735                 1.1976                 0.9623
 IR Inten    --      0.3751                 3.1696                 0.7287

                     28                     29                     30
                      A                      A                      A
 Frequencies --    947.9641               973.2752               984.8386
 Red. masses --      1.3840                 2.4767                 1.2621
 Frc consts  --      0.7328                 1.3823                 0.7212
 IR Inten    --      1.0612                 1.7479                 0.0016

                     31                     32                     33
                      A                      A                      A
 Frequencies --   1009.1203              1036.8034              1079.0407
 Red. masses --      1.8475                 2.3059                 2.2660
 Frc consts  --      1.1085                 1.4605                 1.5545
 IR Inten    --      9.9625                 0.5402                 1.0371

                     34                     35                     36
                      A                      A                      A
 Frequencies --   1096.2384              1104.9401              1121.3212
 Red. masses --      1.8254                 1.9822                 2.1626
 Frc consts  --      1.2924                 1.4258                 1.6021
 IR Inten    --     10.8087                 4.3217                 7.6192

                     37                     38                     39
                      A                      A                      A
 Frequencies --   1181.7105              1196.8705              1202.8048
 Red. masses --      1.5146                 1.1055                 1.2446
 Frc consts  --      1.2462                 0.9330                 1.0609
 IR Inten    --      3.0384                 0.0742                 6.9330

                     40                     41                     42
                      A                      A                      A
 Frequencies --   1210.9835              1244.7515              1251.9986
 Red. masses --      2.5714                 1.6883                 1.5852
 Frc consts  --      2.2217                 1.5412                 1.4640
 IR Inten    --      8.4154                 0.9025                 4.1939

                     43                     44                     45
                      A                      A                      A
 Frequencies --   1299.3699              1309.5216              1329.9367
 Red. masses --      1.5623                 1.4755                 1.4363
 Frc consts  --      1.5541                 1.4908                 1.4968
 IR Inten    --     14.1350                 1.3746                 4.8030

                     46                     47                     48
                      A                      A                      A
 Frequencies --   1350.7325              1356.4596              1374.1044
 Red. masses --      1.7933                 2.0349                 1.6118
 Frc consts  --      1.9277                 2.2060                 1.7931
 IR Inten    --      1.8976                 5.2987                 0.2067

                     49                     50                     51
                      A                      A                      A
 Frequencies --   1392.6706              1399.6299              1436.9654
 Red. masses --      1.4703                 1.3873                 1.2331
 Frc consts  --      1.6802                 1.6012                 1.5001
 IR Inten    --      5.7951                13.8089                 4.8179

                     52                     53                     54
                      A                      A                      A
 Frequencies --   1497.0171              1499.7601              1512.8108
 Red. masses --      1.9687                 1.1059                 1.1775
 Frc consts  --      2.5994                 1.4656                 1.5877
 IR Inten    --      2.5047                 7.5282                 5.5274

                     55                     56                     57
                      A                      A                      A
 Frequencies --   1523.4229              1528.5332              1531.2533
 Red. masses --      1.1333                 1.0678                 1.0758
 Frc consts  --      1.5497                 1.4700                 1.4862
 IR Inten    --      8.1588                 8.6830                 3.8288

                     58                     59                     60
                      A                      A                      A
 Frequencies --   1540.8715              1636.5134              1663.5800
 Red. masses --      2.1156                 5.8639                 5.7801
 Frc consts  --      2.9594                 9.2529                 9.4248
 IR Inten    --     11.7083                 0.2938                 0.0968

                     61                     62                     63
                      A                      A                      A
 Frequencies --   1796.9770              3027.1078              3029.9927
 Red. masses --     10.6185                 1.0661                 1.0682
 Frc consts  --     20.2023                 5.7559                 5.7781
 IR Inten    --    188.1918                17.6037                24.4889

                     64                     65                     66
                      A                      A                      A
 Frequencies --   3050.3792              3053.1629              3069.5242
 Red. masses --      1.0544                 1.0444                 1.0881
 Frc consts  --      5.7807                 5.7360                 6.0401
 IR Inten    --      3.6138                30.0722                13.2382

                     67                     68                     69
                      A                      A                      A
 Frequencies --   3079.5932              3089.5036              3116.3169
 Red. masses --      1.0944                 1.0963                 1.1017
 Frc consts  --      6.1154                 6.1652                 6.3038
 IR Inten    --     26.0169                15.7134                26.3436

                     70                     71                     72
                      A                      A                      A
 Frequencies --   3118.4569              3132.6185              3173.0760
 Red. masses --      1.0994                 1.1020                 1.0860
 Frc consts  --      6.2992                 6.3713                 6.4426
 IR Inten    --     14.9534                30.1469                13.8011

                     73                     74                     75
                      A                      A                      A
 Frequencies --   3177.2286              3192.2639              3207.2454
 Red. masses --      1.0887                 1.0915                 1.0974
 Frc consts  --      6.4752                 6.5534                 6.6508
 IR Inten    --      2.1823                27.8566                27.8582

 - Thermochemistry -
 -------------------
 Temperature   298.150 Kelvin.  Pressure   1.00000 Atm.
 Atom     1 has atomic number  8 and mass  15.99491

 Molecular mass:   174.10447 amu.
 Principal axes and moments of inertia in atomic units:
                           1         2         3
     Eigenvalues --  1147.671392996.229733652.31933
           X            0.99997   0.00815  -0.00156
           Y           -0.00815   0.99997  -0.00180
           Z            0.00155   0.00182   1.00000
 This molecule is an asymmetric top.
 Rotational symmetry number  1.
 Warning -- assumption of classical behavior for rotation
           may cause significant error
 Rotational temperatures (Kelvin)      0.07547     0.02891     0.02371
 Rotational constants (GHZ):           1.57252     0.60234     0.49414
 Zero-point vibrational energy     610873.0 (Joules/Mol)
                                  146.00215 (Kcal/Mol)
 Warning -- explicit consideration of  16 degrees of freedom as
           vibrations may cause significant error
 Vibrational temperatures:     70.97   117.57   171.15   243.43   320.27
          (Kelvin)            340.45   373.46   453.80   497.53   514.64
                              576.89   667.50   709.25   748.31   789.61
                              847.35   922.73   979.43  1054.86  1081.86
                             1101.48  1129.99  1202.81  1271.20  1279.92
                             1313.22  1349.84  1363.91  1400.33  1416.96
                             1451.90  1491.73  1552.50  1577.24  1589.76
                             1613.33  1700.22  1722.03  1730.57  1742.34
                             1790.92  1801.35  1869.50  1884.11  1913.48
                             1943.40  1951.64  1977.03  2003.74  2013.76
                             2067.47  2153.87  2157.82  2176.60  2191.87
                             2199.22  2203.13  2216.97  2354.58  2393.52
                             2585.45  4355.33  4359.48  4388.82  4392.82
                             4416.36  4430.85  4445.11  4483.68  4486.76
                             4507.14  4565.35  4571.32  4592.96  4614.51

 Zero-point correction=                           0.232669 (Hartree/Particle)
 Thermal correction to Energy=                    0.243809
 Thermal correction to Enthalpy=                  0.244754
 Thermal correction to Gibbs Free Energy=         0.195669
 Sum of electronic and zero-point Energies=           -540.708190
 Sum of electronic and thermal Energies=              -540.697050
 Sum of electronic and thermal Enthalpies=            -540.696106
 Sum of electronic and thermal Free Energies=         -540.745190

                     E (Thermal)             CV                S
                      KCal/Mol        Cal/Mol-Kelvin    Cal/Mol-Kelvin
 Total                  152.993             44.511            103.307
 Electronic               0.000              0.000              0.000
 Translational            0.889              2.981             41.371
 Rotational               0.889              2.981             30.908
 Vibrational            151.215             38.549             31.028
 Vibration     1          0.595              1.978              4.844
 Vibration     2          0.600              1.962              3.849
 Vibration     3          0.609              1.934              3.117
 Vibration     4          0.625              1.880              2.444
 Vibration     5          0.648              1.807              1.938
 Vibration     6          0.656              1.785              1.828
 Vibration     7          0.668              1.747              1.665
 Vibration     8          0.703              1.644              1.334
 Vibration     9          0.724              1.584              1.185
 Vibration    10          0.733              1.559              1.132
 Vibration    11          0.767              1.468              0.959
 Vibration    12          0.821              1.330              0.755
 Vibration    13          0.849              1.266              0.676
 Vibration    14          0.875              1.205              0.610
 Vibration    15          0.904              1.142              0.547
 Vibration    16          0.946              1.055              0.469

 Normal termination of Gaussian 16 at Sat Feb 24 04:04:31 2024.
