 Gaussian 16, Revision A.03,
 Gaussian 16:  EM64M-G16RevA.03 25-Dec-2016

 ---------------------
 # freq b3lyp/6-31g(d)
 ---------------------

 ---------
 good luck
 ---------
 Symbolic Z-matrix:
 Charge =  0 Multiplicity = 1

                         Standard orientation:
 ---------------------------------------------------------------------
 Center     Atomic      Atomic             Coordinates (Angstroms)
 Number     Number       Type             X           Y           Z
 ---------------------------------------------------------------------
      1          8           0       -3.264407    0.868164    0.148165
      2          6           0       -2.130831    0.616378   -0.221235
      3          6           0       -1.145134    1.744669   -0.496748
      4          6           0        0.038149    1.791628    0.508037
      5          6           0        1.117165    0.760124    0.260365
      6          6           0        2.413153    1.179746   -0.064354
      7          6           0        3.435908    0.264240   -0.312302
      8          6           0        3.166625   -1.101051   -0.239517
      9          6           0        1.879023   -1.531058    0.081069
     10          6           0        0.843865   -0.622041    0.334943
     11          6           0       -0.536362   -1.144045    0.672056
     12          6           0       -1.651123   -0.828690   -0.376740
     13          6           0       -2.818961   -1.811523   -0.251795
     14          1           0       -0.744150    1.651600   -1.514580
     15          1           0       -1.715212    2.676391   -0.434678
     16          1           0       -0.364074    1.697416    1.526882
     17          1           0        0.485244    2.789911    0.451388
     18          1           0        2.622588    2.245790   -0.120771
     19          1           0        4.433430    0.617131   -0.559966
     20          1           0        3.951166   -1.828621   -0.429420
     21          1           0        1.669579   -2.596942    0.139998
     22          1           0       -0.866233   -0.771408    1.652874
     23          1           0       -0.480461   -2.233873    0.769320
     24          1           0       -1.195614   -0.924226   -1.373018
     25          1           0       -3.613894   -1.572444   -0.964151
     26          1           0       -2.477408   -2.835116   -0.441665
     27          1           0       -3.258566   -1.771188    0.749799
 ---------------------------------------------------------------------

 SCF Done:  E(RB3LYP) =  -540.942867264     A.U. after   15 cycles

 The electronic state is 1-A.
 Alpha  occ. eigenvalues --  -19.13534 -10.26897 -10.20099 -10.20035 -10.19883
 Alpha  occ. eigenvalues --  -10.19838 -10.19789 -10.19356 -10.19084 -10.19049
 Alpha  occ. eigenvalues --  -10.19013 -10.18992 -10.17409  -1.03464  -0.86487
 Alpha  occ. eigenvalues --   -0.81231  -0.79098  -0.75333  -0.73817  -0.68612
 Alpha  occ. eigenvalues --   -0.65381  -0.62523  -0.60096  -0.56665  -0.52430
 Alpha  occ. eigenvalues --   -0.50819  -0.47715  -0.47398  -0.45902  -0.44687
 Alpha  occ. eigenvalues --   -0.43443  -0.42394  -0.41740  -0.40330  -0.39497
 Alpha  occ. eigenvalues --   -0.38912  -0.38134  -0.35984  -0.35774  -0.35256
 Alpha  occ. eigenvalues --   -0.34757  -0.33562  -0.33405  -0.32544  -0.24960
 Alpha  occ. eigenvalues --   -0.24099  -0.23772
 Alpha virt. eigenvalues --   -0.01383  -0.00493  -0.00074   0.08957   0.09869
 Alpha virt. eigenvalues --    0.10696   0.11062   0.13079   0.13905   0.14853
 Alpha virt. eigenvalues --    0.15785   0.16307   0.17082   0.17515   0.17655

 Mulliken charges:
               1
     1  O   -0.445834
     2  C    0.445026
     3  C   -0.333206
     4  C   -0.371578
     5  C    0.132458
     6  C   -0.193530
     7  C   -0.125681
     8  C   -0.126886
     9  C   -0.192238
    10  C    0.129267
    11  C   -0.373753
    12  C   -0.157308
    13  C   -0.439370
    14  H    0.155673
    15  H    0.164315
    16  H    0.161398
    17  H    0.154381
    18  H    0.124541
    19  H    0.129587
    20  H    0.129594
    21  H    0.124511
    22  H    0.157237
    23  H    0.153073
    24  H    0.145635
    25  H    0.157953
    26  H    0.135607
    27  H    0.159128
 Sum of Mulliken charges =  -0.00000

 Dipole moment (field-independent basis, Debye):
    X=              2.4316    Y=             -0.5162    Z=             -0.5897  Tot=              2.5548
 Quadrupole moment (field-independent basis, Debye-Ang):
   XX=            -86.1679   YY=            -71.7511   ZZ=            -77.6064
   XY=              3.7050   XZ=              0.3168   YZ=             -0.5344

  Exact polarizability: 158.235  -1.468 129.103 -11.392   0.039  72.289
 Approx polarizability: 227.192  -6.323 203.722 -26.742   1.024 115.927

                      1                      2                      3
                      A                      A                      A
 Frequencies --     57.1530                78.1438               129.0950
 Red. masses --      6.6544                 3.2774                 3.7755
 Frc consts  --      0.0128                 0.0118                 0.0371
 IR Inten    --      2.7584                 0.2400                 1.5377

                      4                      5                      6
                      A                      A                      A
 Frequencies --    165.9261               219.7493               270.1042
 Red. masses --      3.1491                 1.0782                 3.4458
 Frc consts  --      0.0511                 0.0307                 0.1481
 IR Inten    --      0.1207                 0.2184                 0.9788

                      7                      8                      9
                      A                      A                      A
 Frequencies --    281.6208               304.6713               319.9299
 Red. masses --      2.6029                 3.9516                 2.2759
 Frc consts  --      0.1216                 0.2161                 0.1373
 IR Inten    --      0.5402                 3.0865                 0.8566

                     10                     11                     12
                      A                      A                      A
 Frequencies --    343.1185               399.6240               444.6814
 Red. masses --      4.1578                 2.4281                 2.3782
 Frc consts  --      0.2884                 0.2285                 0.2771
 IR Inten    --      2.5657                 1.7356                 2.2406

                     13                     14                     15
                      A                      A                      A
 Frequencies --    486.4179               517.2487               566.3848
 Red. masses --      3.4229                 3.8564                 4.1481
 Frc consts  --      0.4772                 0.6079                 0.7840
 IR Inten    --      5.0768                 0.2049                 4.4654

                     16                     17                     18
                      A                      A                      A
 Frequencies --    586.9542               628.6829               703.3769
 Red. masses --      3.2805                 4.7670                 3.3003
 Frc consts  --      0.6659                 1.1101                 0.9620
 IR Inten    --      1.3287                 2.5547                 4.8133

                     19                     20                     21
                      A                      A                      A
 Frequencies --    736.3069               756.1075               760.6711
 Red. masses --      2.6486                 3.2479                 2.8745
 Frc consts  --      0.8460                 1.0940                 0.9800
 IR Inten    --      2.8618                 5.0333                 6.0178

                     22                     23                     24
                      A                      A                      A
 Frequencies --    779.0460               839.5699               879.8154
 Red. masses --      1.4978                 2.7036                 1.6842
 Frc consts  --      0.5356                 1.1228                 0.7681
 IR Inten    --     26.1720                 0.7247                 2.9652

                     25                     26                     27
                      A                      A                      A
 Frequencies --    894.6454               917.0498               932.5689
 Red. masses --      1.8926                 2.0137                 1.8465
 Frc consts  --      0.8925                 0.9978                 0.9462
 IR Inten    --      3.1972                 4.5149                 0.2366

                     28                     29                     30
                      A                      A                      A
 Frequencies --    946.8937               971.4109               984.4517
 Red. masses --      1.3667                 2.2866                 1.2623
 Frc consts  --      0.7220                 1.2713                 0.7208
 IR Inten    --      0.4926                 1.8494                 0.0056

                     31                     32                     33
                      A                      A                      A
 Frequencies --   1012.0272              1061.8004              1082.9120
 Red. masses --      2.0491                 2.3204                 2.3911
 Frc consts  --      1.2365                 1.5414                 1.6521
 IR Inten    --      2.2009                 5.8040                 3.2861

                     34                     35                     36
                      A                      A                      A
 Frequencies --   1099.2654              1119.7227              1129.2143
 Red. masses --      2.0997                 2.0854                 1.6911
 Frc consts  --      1.4949                 1.5405                 1.2705
 IR Inten    --      8.2172                 9.5823                 3.3502

                     37                     38                     39
                      A                      A                      A
 Frequencies --   1154.6340              1196.9721              1202.8497
 Red. masses --      1.8977                 1.1033                 1.2496
 Frc consts  --      1.4906                 0.9313                 1.0653
 IR Inten    --     16.7140                 0.0439                 8.6192

                     40                     41                     42
                      A                      A                      A
 Frequencies --   1210.0563              1216.0348              1248.4818
 Red. masses --      1.7850                 1.7713                 2.1805
 Frc consts  --      1.5399                 1.5433                 2.0025
 IR Inten    --      6.3587                 1.5407                 0.5688

                     43                     44                     45
                      A                      A                      A
 Frequencies --   1273.3062              1308.7586              1340.3907
 Red. masses --      1.3487                 1.3939                 1.5103
 Frc consts  --      1.2883                 1.4067                 1.5987
 IR Inten    --      9.3717                 4.8938                 3.6005

                     46                     47                     48
                      A                      A                      A
 Frequencies --   1347.2400              1353.7177              1360.4244
 Red. masses --      1.4050                 1.4485                 2.4937
 Frc consts  --      1.5025                 1.5640                 2.7192
 IR Inten    --      2.6928                 8.0746                 3.3788

                     49                     50                     51
                      A                      A                      A
 Frequencies --   1391.1146              1409.6265              1440.5595
 Red. masses --      1.4997                 1.6777                 1.2318
 Frc consts  --      1.7099                 1.9641                 1.5061
 IR Inten    --      6.3540                 4.2443                 3.5709

                     52                     53                     54
                      A                      A                      A
 Frequencies --   1497.0908              1501.4343              1513.8855
 Red. masses --      2.0091                 1.1080                 1.1477
 Frc consts  --      2.6530                 1.4716                 1.5498
 IR Inten    --      2.5806                 5.9626                 4.8632

                     55                     56                     57
                      A                      A                      A
 Frequencies --   1521.2105              1523.2721              1527.9605
 Red. masses --      1.0720                 1.0981                 1.1164
 Frc consts  --      1.4616                 1.5013                 1.5356
 IR Inten    --      2.7317                12.6249                 4.2049

                     58                     59                     60
                      A                      A                      A
 Frequencies --   1541.7759              1636.8169              1663.6551
 Red. masses --      2.1081                 5.8848                 5.7689
 Frc consts  --      2.9525                 9.2893                 9.4074
 IR Inten    --     12.8734                 0.3784                 0.1910

                     61                     62                     63
                      A                      A                      A
 Frequencies --   1798.8246              3022.6802              3031.4017
 Red. masses --     10.8737                 1.0725                 1.0682
 Frc consts  --     20.7302                 5.7736                 5.7833
 IR Inten    --    174.0504                 2.1975                18.3561

                     64                     65                     66
                      A                      A                      A
 Frequencies --   3034.0271              3052.1319              3059.5121
 Red. masses --      1.0765                 1.0632                 1.0368
 Frc consts  --      5.8383                 5.8352                 5.7182
 IR Inten    --     26.7574                21.4758                23.2486

                     67                     68                     69
                      A                      A                      A
 Frequencies --   3084.9201              3090.1229              3118.4553
 Red. masses --      1.0957                 1.0965                 1.1005
 Frc consts  --      6.1439                 6.1689                 6.3055
 IR Inten    --     21.9111                16.2522                18.1677

                     70                     71                     72
                      A                      A                      A
 Frequencies --   3127.9191              3138.8976              3172.9184
 Red. masses --      1.1020                 1.1022                 1.0860
 Frc consts  --      6.3525                 6.3984                 6.4418
 IR Inten    --     25.7110                20.7955                14.2390

                     73                     74                     75
                      A                      A                      A
 Frequencies --   3177.0234              3192.1738              3207.1873
 Red. masses --      1.0887                 1.0915                 1.0974
 Frc consts  --      6.4744                 6.5529                 6.6506
 IR Inten    --      1.9827                28.0618                28.5327

 - Thermochemistry -
 -------------------
 Temperature   298.150 Kelvin.  Pressure   1.00000 Atm.
 Atom     1 has atomic number  8 and mass  15.99491

 Molecular mass:   174.10447 amu.
 Principal axes and moments of inertia in atomic units:
                           1         2         3
     Eigenvalues --  1123.422523155.024124052.98009
           X            0.99973   0.02323  -0.00092
           Y           -0.02323   0.99973  -0.00117
           Z            0.00090   0.00119   1.00000
 This molecule is an asymmetric top.
 Rotational symmetry number  1.
 Warning -- assumption of classical behavior for rotation
           may cause significant error
 Rotational temperatures (Kelvin)      0.07710     0.02745     0.02137
 Rotational constants (GHZ):           1.60647     0.57202     0.44529
 Zero-point vibrational energy     610668.7 (Joules/Mol)
                                  145.95331 (Kcal/Mol)
 Warning -- explicit consideration of  16 degrees of freedom as
           vibrations may cause significant error
 Vibrational temperatures:     82.23   112.43   185.74   238.73   316.17
          (Kelvin)            388.62   405.19   438.35   460.31   493.67
                              574.97   639.80   699.85   744.21   814.90
                              844.50   904.53  1012.00  1059.38  1087.87
                             1094.44  1120.87  1207.95  1265.86  1287.20
                             1319.43  1341.76  1362.37  1397.64  1416.41
                             1456.08  1527.69  1558.07  1581.60  1611.03
                             1624.69  1661.26  1722.18  1730.63  1741.00
                             1749.60  1796.29  1832.00  1883.01  1928.52
                             1938.38  1947.70  1957.35  2001.50  2028.14
                             2072.64  2153.98  2160.23  2178.14  2188.68
                             2191.65  2198.39  2218.27  2355.01  2393.63
                             2588.11  4348.96  4361.51  4365.29  4391.34
                             4401.96  4438.51  4446.00  4486.76  4500.38
                             4516.17  4565.12  4571.03  4592.83  4614.43

 Zero-point correction=                           0.232591 (Hartree/Particle)
 Thermal correction to Energy=                    0.243708
 Thermal correction to Enthalpy=                  0.244652
 Thermal correction to Gibbs Free Energy=         0.195686
 Sum of electronic and zero-point Energies=           -540.710276
 Sum of electronic and thermal Energies=              -540.699160
 Sum of electronic and thermal Enthalpies=            -540.698215
 Sum of electronic and thermal Free Energies=         -540.747182

                     E (Thermal)             CV                S
                      KCal/Mol        Cal/Mol-Kelvin    Cal/Mol-Kelvin
 Total                  152.929             44.536            103.058
 Electronic               0.000              0.000              0.000
 Translational            0.889              2.981             41.371
 Rotational               0.889              2.981             31.041
 Vibrational            151.151             38.574             30.646
 Vibration     1          0.596              1.975              4.553
 Vibration     2          0.599              1.964              3.937
 Vibration     3          0.612              1.924              2.959
 Vibration     4          0.624              1.884              2.481
 Vibration     5          0.647              1.811              1.961
 Vibration     6          0.674              1.728              1.596
 Vibration     7          0.681              1.708              1.524
 Vibration     8          0.696              1.665              1.391
 Vibration     9          0.706              1.635              1.310
 Vibration    10          0.722              1.589              1.198
 Vibration    11          0.766              1.471              0.964
 Vibration    12          0.804              1.373              0.812
 Vibration    13          0.842              1.280              0.693
 Vibration    14          0.872              1.212              0.616
 Vibration    15          0.922              1.104              0.511
 Vibration    16          0.944              1.060              0.473

 Normal termination of Gaussian 16 at Sat Feb 24 04:07:25 2024.
