 Gaussian 16, Revision A.03,
 Gaussian 16:  EM64M-G16RevA.03 25-Dec-2016

 ---------------------
 # freq b3lyp/6-31g(d)
 ---------------------

 ---------
 good luck
 ---------
 Symbolic Z-matrix:
 Charge =  0 Multiplicity = 1

                         Standard orientation:
 ---------------------------------------------------------------------
 Center     Atomic      Atomic             Coordinates (Angstroms)
 Number     Number       Type             X           Y           Z
 ---------------------------------------------------------------------
      1          8           0       -4.255931    0.274115   -0.000015
      2          6           0       -3.059729    0.070093   -0.000004
      3          6           0       -2.273816   -0.125081    1.293271
      4          8           0       -0.882568    0.135847    1.161951
      5          6           0       -0.323911   -0.450279    0.000022
      6          6           0        1.160671   -0.198895    0.000011
      7          6           0        2.060861   -1.265798    0.000055
      8          6           0        3.436853   -1.026851    0.000042
      9          6           0        3.915155    0.283316   -0.000014
     10          6           0        3.015858    1.353823   -0.000058
     11          6           0        1.643423    1.115123   -0.000047
     12          8           0       -0.882567    0.135736   -1.161963
     13          6           0       -2.273814   -0.125205   -1.293259
     14          1           0       -2.445951   -1.165549    1.625646
     15          1           0       -2.668135    0.541048    2.064579
     16          1           0       -0.541688   -1.535222    0.000074
     17          1           0        1.687505   -2.287323    0.000098
     18          1           0        4.131206   -1.862639    0.000077
     19          1           0        4.985419    0.472082   -0.000023
     20          1           0        3.386609    2.375313   -0.000101
     21          1           0        0.938331    1.940095   -0.000081
     22          1           0       -2.445949   -1.165706   -1.625533
     23          1           0       -2.668133    0.540850   -2.064633
 ---------------------------------------------------------------------

 SCF Done:  E(RB3LYP) =  -612.722037569     A.U. after   14 cycles

 The electronic state is 1-A.
 Alpha  occ. eigenvalues --  -19.16883 -19.16883 -19.15749 -10.29982 -10.29160
 Alpha  occ. eigenvalues --  -10.25442 -10.25441 -10.19958 -10.19645 -10.19435
 Alpha  occ. eigenvalues --  -10.19373 -10.19274 -10.19184  -1.09122  -1.05542
 Alpha  occ. eigenvalues --   -1.02123  -0.85951  -0.79529  -0.74874  -0.74262
 Alpha  occ. eigenvalues --   -0.70924  -0.66834  -0.61232  -0.59706  -0.56030
 Alpha  occ. eigenvalues --   -0.53204  -0.53125  -0.49871  -0.48361  -0.47115
 Alpha  occ. eigenvalues --   -0.46141  -0.45537  -0.43747  -0.43210  -0.42356
 Alpha  occ. eigenvalues --   -0.42175  -0.37698  -0.36961  -0.36489  -0.35121
 Alpha  occ. eigenvalues --   -0.34674  -0.33983  -0.30996  -0.28812  -0.25565
 Alpha  occ. eigenvalues --   -0.25209  -0.23978
 Alpha virt. eigenvalues --   -0.03674  -0.01076  -0.00253   0.08021   0.09217
 Alpha virt. eigenvalues --    0.11010   0.11976   0.12465   0.13489   0.15118
 Alpha virt. eigenvalues --    0.16178   0.16337   0.16926   0.17686   0.18715

 Mulliken charges:
               1
     1  O   -0.429313
     2  C    0.405691
     3  C   -0.113508
     4  O   -0.467231
     5  C    0.265681
     6  C    0.146565
     7  C   -0.181684
     8  C   -0.132459
     9  C   -0.122847
    10  C   -0.134635
    11  C   -0.144657
    12  O   -0.467231
    13  C   -0.113508
    14  H    0.162550
    15  H    0.191044
    16  H    0.106433
    17  H    0.128653
    18  H    0.132422
    19  H    0.132595
    20  H    0.134199
    21  H    0.147646
    22  H    0.162550
    23  H    0.191044
 Sum of Mulliken charges =  -0.00000

 Dipole moment (field-independent basis, Debye):
    X=              1.4964    Y=             -1.4813    Z=              0.0001  Tot=              2.1056
 Quadrupole moment (field-independent basis, Debye-Ang):
   XX=            -79.3487   YY=            -68.0382   ZZ=            -76.2895
   XY=              3.1693   XZ=             -0.0002   YZ=             -0.0004

  Exact polarizability: 150.736  -0.790 101.773  -0.000  -0.001  65.431
 Approx polarizability: 207.327  -2.806 173.585   0.000  -0.003  94.389

                      1                      2                      3
                      A                      A                      A
 Frequencies --     22.6508                48.5626                90.9981
 Red. masses --      3.8095                 7.4744                 5.4489
 Frc consts  --      0.0012                 0.0104                 0.0266
 IR Inten    --      0.5184                 2.5663                 0.4714

                      4                      5                      6
                      A                      A                      A
 Frequencies --    137.8169               175.6297               262.3059
 Red. masses --      3.1244                 2.9943                 5.9427
 Frc consts  --      0.0350                 0.0544                 0.2409
 IR Inten    --      7.0023                 1.0457                 2.2010

                      7                      8                      9
                      A                      A                      A
 Frequencies --    292.0215               320.7237               415.5583
 Red. masses --      4.4432                 4.5379                 3.0451
 Frc consts  --      0.2232                 0.2750                 0.3098
 IR Inten    --      0.1331                 5.1246                 0.9954

                     10                     11                     12
                      A                      A                      A
 Frequencies --    418.7985               432.6970               471.0943
 Red. masses --      5.3749                 2.4103                 5.1381
 Frc consts  --      0.5554                 0.2659                 0.6718
 IR Inten    --     25.7266                 4.3879                 1.3379

                     13                     14                     15
                      A                      A                      A
 Frequencies --    558.2118               561.8270               633.4255
 Red. masses --      3.6871                 6.1973                 6.5013
 Frc consts  --      0.6769                 1.1525                 1.5369
 IR Inten    --      0.7070                 3.3334                 0.0514

                     16                     17                     18
                      A                      A                      A
 Frequencies --    650.8158               693.8588               710.8918
 Red. masses --      8.5860                 6.0070                 1.8347
 Frc consts  --      2.1427                 1.7039                 0.5463
 IR Inten    --      0.2741                14.6182                24.7750

                     19                     20                     21
                      A                      A                      A
 Frequencies --    776.6799               810.9759               821.9776
 Red. masses --      1.8831                 4.2001                 1.5520
 Frc consts  --      0.6693                 1.6275                 0.6178
 IR Inten    --     46.2138                 2.6685                 0.6360

                     22                     23                     24
                      A                      A                      A
 Frequencies --    858.6737               918.6930               925.5191
 Red. masses --      1.2511                 3.5002                 1.4257
 Frc consts  --      0.5435                 1.7405                 0.7195
 IR Inten    --      0.0372                 6.5742                14.4162

                     25                     26                     27
                      A                      A                      A
 Frequencies --    966.7544               992.0341               995.6947
 Red. masses --      1.3562                 2.7122                 4.7769
 Frc consts  --      0.7468                 1.5726                 2.7903
 IR Inten    --      0.1933                70.0097                29.0987

                     28                     29                     30
                      A                      A                      A
 Frequencies --    998.5751              1020.0833              1058.1139
 Red. masses --      1.4963                 6.2710                 2.1575
 Frc consts  --      0.8791                 3.8446                 1.4232
 IR Inten    --     19.0641                 1.1804                 5.3824

                     31                     32                     33
                      A                      A                      A
 Frequencies --   1078.2354              1085.7130              1116.5878
 Red. masses --     10.5084                 2.3088                 1.6180
 Frc consts  --      7.1980                 1.6035                 1.1885
 IR Inten    --     58.7515                12.0354                 5.8051

                     34                     35                     36
                      A                      A                      A
 Frequencies --   1163.4159              1194.1016              1211.8375
 Red. masses --      7.5378                 1.1037                 1.1321
 Frc consts  --      6.0112                 0.9272                 0.9795
 IR Inten    --    301.8182                 0.1375                 0.4912

                     37                     38                     39
                      A                      A                      A
 Frequencies --   1228.5146              1242.0687              1256.6685
 Red. masses --      2.5258                 2.1443                 1.4691
 Frc consts  --      2.2460                 1.9491                 1.3669
 IR Inten    --     22.1704                16.7879                34.0413

                     40                     41                     42
                      A                      A                      A
 Frequencies --   1280.2026              1349.5173              1359.1953
 Red. masses --      1.1529                 2.5427                 1.2961
 Frc consts  --      1.1133                 2.7283                 1.4108
 IR Inten    --     12.0190                13.3035                 1.6114

                     43                     44                     45
                      A                      A                      A
 Frequencies --   1367.3371              1387.2821              1400.8435
 Red. masses --      2.0848                 1.3644                 1.1879
 Frc consts  --      2.2965                 1.5472                 1.3734
 IR Inten    --      2.4672                47.8837                11.5903

                     46                     47                     48
                      A                      A                      A
 Frequencies --   1440.1580              1486.5113              1489.8202
 Red. masses --      1.6361                 1.0826                 1.1136
 Frc consts  --      1.9993                 1.4095                 1.4562
 IR Inten    --     84.6768                14.0440                 7.7607

                     49                     50                     51
                      A                      A                      A
 Frequencies --   1507.8875              1550.4272              1650.5238
 Red. masses --      2.0516                 2.3430                 5.5892
 Frc consts  --      2.7484                 3.3184                 8.9711
 IR Inten    --     12.8514                 0.3670                 0.4244

                     52                     53                     54
                      A                      A                      A
 Frequencies --   1670.6758              1834.2958              2944.8025
 Red. masses --      5.5991                12.1378                 1.0829
 Frc consts  --      9.2077                24.0619                 5.5326
 IR Inten    --      0.7898               155.2767                44.3337

                     55                     56                     57
                      A                      A                      A
 Frequencies --   2966.9248              2972.6908              3133.9193
 Red. masses --      1.0707                 1.0727                 1.0901
 Frc consts  --      5.5528                 5.5850                 6.3080
 IR Inten    --     10.6511                74.9353                 5.4824

                     58                     59                     60
                      A                      A                      A
 Frequencies --   3134.9201              3178.4922              3186.5253
 Red. masses --      1.0914                 1.0863                 1.0877
 Frc consts  --      6.3198                 6.4659                 6.5074
 IR Inten    --     14.2814                 5.4944                 2.6400

                     61                     62                     63
                      A                      A                      A
 Frequencies --   3197.4761              3208.3771              3220.5996
 Red. masses --      1.0916                 1.0961                 1.0942
 Frc consts  --      6.5756                 6.6479                 6.6870
 IR Inten    --     26.9575                28.9283                 6.4079

 - Thermochemistry -
 -------------------
 Temperature   298.150 Kelvin.  Pressure   1.00000 Atm.
 Atom     1 has atomic number  8 and mass  15.99491

 Molecular mass:   178.06299 amu.
 Principal axes and moments of inertia in atomic units:
                           1         2         3
     Eigenvalues --   700.925024528.554594534.90716
           X            0.99999   0.00394  -0.00000
           Y           -0.00394   0.99999  -0.00022
           Z            0.00000   0.00022   1.00000
 This molecule is an asymmetric top.
 Rotational symmetry number  1.
 Warning -- assumption of classical behavior for rotation
           may cause significant error
 Rotational temperatures (Kelvin)      0.12357     0.01913     0.01910
 Rotational constants (GHZ):           2.57480     0.39852     0.39797
 Zero-point vibrational energy     481725.5 (Joules/Mol)
                                  115.13515 (Kcal/Mol)
 Warning -- explicit consideration of  14 degrees of freedom as
           vibrations may cause significant error
 Vibrational temperatures:     32.59    69.87   130.93   198.29   252.69
          (Kelvin)            377.40   420.15   461.45   597.90   602.56
                              622.55   677.80   803.14   808.34   911.36
                              936.38   998.31  1022.81  1117.47  1166.81
                             1182.64  1235.44  1321.79  1331.62  1390.94
                             1427.32  1432.58  1436.73  1467.67  1522.39
                             1551.34  1562.10  1606.52  1673.90  1718.05
                             1743.56  1767.56  1787.06  1808.07  1841.93
                             1941.65  1955.58  1967.29  1995.99  2015.50
                             2072.07  2138.76  2143.52  2169.51  2230.72
                             2374.74  2403.73  2639.14  4236.91  4268.74
                             4277.04  4509.01  4510.45  4573.14  4584.70
                             4600.45  4616.14  4633.72

 Zero-point correction=                           0.183480 (Hartree/Particle)
 Thermal correction to Energy=                    0.194203
 Thermal correction to Enthalpy=                  0.195147
 Thermal correction to Gibbs Free Energy=         0.145242
 Sum of electronic and zero-point Energies=           -612.538558
 Sum of electronic and thermal Energies=              -612.527834
 Sum of electronic and thermal Enthalpies=            -612.526890
 Sum of electronic and thermal Free Energies=         -612.576795

                     E (Thermal)             CV                S
                      KCal/Mol        Cal/Mol-Kelvin    Cal/Mol-Kelvin
 Total                  121.864             41.020            105.035
 Electronic               0.000              0.000              0.000
 Translational            0.889              2.981             41.438
 Rotational               0.889              2.981             31.043
 Vibrational            120.087             35.059             32.554
 Vibration     1          0.593              1.985              6.387
 Vibration     2          0.595              1.978              4.875
 Vibration     3          0.602              1.956              3.638
 Vibration     4          0.614              1.916              2.834
 Vibration     5          0.628              1.872              2.374
 Vibration     6          0.670              1.742              1.646
 Vibration     7          0.687              1.689              1.462
 Vibration     8          0.706              1.634              1.306
 Vibration     9          0.779              1.436              0.907
 Vibration    10          0.782              1.429              0.896
 Vibration    11          0.794              1.399              0.850
 Vibration    12          0.828              1.314              0.734
 Vibration    13          0.914              1.122              0.527
 Vibration    14          0.918              1.114              0.520

 Normal termination of Gaussian 16 at Sat Feb 24 03:47:44 2024.
