 Gaussian 16, Revision A.03,
 Gaussian 16:  EM64M-G16RevA.03 25-Dec-2016

 ---------------------
 # freq b3lyp/6-31g(d)
 ---------------------

 ---------
 good luck
 ---------
 Symbolic Z-matrix:
 Charge =  0 Multiplicity = 1

                         Standard orientation:
 ---------------------------------------------------------------------
 Center     Atomic      Atomic             Coordinates (Angstroms)
 Number     Number       Type             X           Y           Z
 ---------------------------------------------------------------------
      1          8           0        4.271956    0.000000   -0.240919
      2          6           0        3.069865   -0.000000   -0.077197
      3          6           0        2.279926   -1.295679    0.092413
      4          8           0        0.896000   -1.162297   -0.201468
      5          6           0        0.335896   -0.000001    0.374459
      6          6           0       -1.159586   -0.000001    0.150860
      7          6           0       -1.859845   -1.208792    0.076031
      8          6           0       -3.246529   -1.207094   -0.077176
      9          6           0       -3.943466    0.000001   -0.153299
     10          6           0       -3.246527    1.207095   -0.077181
     11          6           0       -1.859843    1.208791    0.076027
     12          8           0        0.895999    1.162298   -0.201462
     13          6           0        2.279926    1.295679    0.092419
     14          1           0        2.690132   -2.061532   -0.570145
     15          1           0        2.428112   -1.633183    1.134654
     16          1           0        0.568859   -0.000004    1.459030
     17          1           0       -1.314227   -2.144816    0.125961
     18          1           0       -3.781892   -2.150746   -0.140199
     19          1           0       -5.023662    0.000002   -0.272915
     20          1           0       -3.781889    2.150747   -0.140209
     21          1           0       -1.314223    2.144815    0.125952
     22          1           0        2.690132    2.061534   -0.570137
     23          1           0        2.428113    1.633178    1.134661
 ---------------------------------------------------------------------

 SCF Done:  E(RB3LYP) =  -612.722572845     A.U. after   14 cycles

 The electronic state is 1-A.
 Alpha  occ. eigenvalues --  -19.17238 -19.17238 -19.15909 -10.30235 -10.29365
 Alpha  occ. eigenvalues --  -10.25688 -10.25688 -10.19955 -10.19149 -10.19082
 Alpha  occ. eigenvalues --  -10.19062 -10.18997 -10.18995  -1.09531  -1.05736
 Alpha  occ. eigenvalues --   -1.02606  -0.85694  -0.79539  -0.74515  -0.74225
 Alpha  occ. eigenvalues --   -0.71184  -0.66953  -0.60531  -0.59602  -0.56542
 Alpha  occ. eigenvalues --   -0.53394  -0.53111  -0.49628  -0.48435  -0.47339
 Alpha  occ. eigenvalues --   -0.46367  -0.45165  -0.44727  -0.42890  -0.42495
 Alpha  occ. eigenvalues --   -0.41729  -0.37529  -0.36907  -0.36095  -0.35914
 Alpha  occ. eigenvalues --   -0.34367  -0.34005  -0.31232  -0.29052  -0.25005
 Alpha  occ. eigenvalues --   -0.24915  -0.24425
 Alpha virt. eigenvalues --   -0.03834  -0.00769  -0.00050   0.08294   0.09645
 Alpha virt. eigenvalues --    0.11145   0.11372   0.13275   0.13780   0.14775
 Alpha virt. eigenvalues --    0.15928   0.15973   0.16534   0.17778   0.18888

 Mulliken charges:
               1
     1  O   -0.428469
     2  C    0.407093
     3  C   -0.113952
     4  O   -0.472244
     5  C    0.324298
     6  C    0.056048
     7  C   -0.153381
     8  C   -0.137401
     9  C   -0.120852
    10  C   -0.137401
    11  C   -0.153381
    12  O   -0.472244
    13  C   -0.113952
    14  H    0.191929
    15  H    0.164267
    16  H    0.119043
    17  H    0.145300
    18  H    0.131597
    19  H    0.130608
    20  H    0.131597
    21  H    0.145300
    22  H    0.191929
    23  H    0.164267
 Sum of Mulliken charges =  -0.00000

 Dipole moment (field-independent basis, Debye):
    X=             -1.2551    Y=             -0.0000    Z=              1.6371  Tot=              2.0629
 Quadrupole moment (field-independent basis, Debye-Ang):
   XX=            -79.9883   YY=            -68.7678   ZZ=            -75.4062
   XY=              0.0000   XZ=              3.3679   YZ=             -0.0000

  Exact polarizability: 150.050   0.000 110.381   4.101  -0.000  56.177
 Approx polarizability: 205.713   0.000 180.273   7.221  -0.000  87.937

                      1                      2                      3
                      A                      A                      A
 Frequencies --     31.5071                49.2834               123.5525
 Red. masses --      3.8830                 7.5734                 3.4075
 Frc consts  --      0.0023                 0.0108                 0.0306
 IR Inten    --      0.1973                 2.2659                 7.8173

                      4                      5                      6
                      A                      A                      A
 Frequencies --    125.2563               185.7930               245.5784
 Red. masses --      5.5242                 2.8432                 3.8864
 Frc consts  --      0.0511                 0.0578                 0.1381
 IR Inten    --      0.1558                 0.4358                 4.5611

                      7                      8                      9
                      A                      A                      A
 Frequencies --    285.7595               378.4688               417.4193
 Red. masses --      6.4746                 5.7209                 3.0209
 Frc consts  --      0.3115                 0.4828                 0.3101
 IR Inten    --      1.1592                 1.9801                 0.2280

                     10                     11                     12
                      A                      A                      A
 Frequencies --    429.6844               433.2149               474.1070
 Red. masses --      5.2515                 2.3341                 3.6945
 Frc consts  --      0.5713                 0.2581                 0.4893
 IR Inten    --     25.1396                 3.3536                 0.0270

                     13                     14                     15
                      A                      A                      A
 Frequencies --    507.6819               559.2629               634.4910
 Red. masses --      5.7298                 6.0641                 6.3896
 Frc consts  --      0.8701                 1.1175                 1.5156
 IR Inten    --      2.3697                 5.0511                 0.1790

                     16                     17                     18
                      A                      A                      A
 Frequencies --    647.4055               693.1189               712.7550
 Red. masses --      6.9306                 5.7416                 2.1609
 Frc consts  --      1.7115                 1.6252                 0.6468
 IR Inten    --      5.9106                 8.9153                19.8582

                     19                     20                     21
                      A                      A                      A
 Frequencies --    758.0280               812.1482               823.4476
 Red. masses --      1.7127                 3.6773                 1.5460
 Frc consts  --      0.5798                 1.4291                 0.6176
 IR Inten    --     42.9429                 1.3298                 0.0092

                     22                     23                     24
                      A                      A                      A
 Frequencies --    866.9011               912.8883               955.7743
 Red. masses --      1.2457                 1.9142                 2.1635
 Frc consts  --      0.5516                 0.9399                 1.1644
 IR Inten    --      0.1209                 2.4012                 4.4721

                     25                     26                     27
                      A                      A                      A
 Frequencies --    976.4817               996.7619              1005.7028
 Red. masses --      1.3450                 1.8734                 2.0491
 Frc consts  --      0.7556                 1.0966                 1.2211
 IR Inten    --      0.1899                16.2417                12.2996

                     28                     29                     30
                      A                      A                      A
 Frequencies --   1009.4126              1019.6976              1060.2869
 Red. masses --      4.3934                 6.0861                 2.1425
 Frc consts  --      2.6375                 3.7285                 1.4191
 IR Inten    --     72.7402                 1.4611                10.8361

                     31                     32                     33
                      A                      A                      A
 Frequencies --   1085.6463              1088.1945              1118.2523
 Red. masses --      8.2105                 2.3857                 1.6267
 Frc consts  --      5.7016                 1.6645                 1.1985
 IR Inten    --     60.0072                 6.1244                 2.9671

                     34                     35                     36
                      A                      A                      A
 Frequencies --   1167.9834              1193.5072              1211.5635
 Red. masses --      7.7905                 1.1017                 1.1334
 Frc consts  --      6.2616                 0.9246                 0.9802
 IR Inten    --    266.4358                 0.0054                 9.2466

                     37                     38                     39
                      A                      A                      A
 Frequencies --   1226.9724              1244.5211              1256.8974
 Red. masses --      2.6323                 2.2982                 1.4501
 Frc consts  --      2.3348                 2.0972                 1.3498
 IR Inten    --     24.6380                21.6880                30.8689

                     40                     41                     42
                      A                      A                      A
 Frequencies --   1282.2922              1344.4828              1363.3217
 Red. masses --      1.1356                 2.1523                 1.6450
 Frc consts  --      1.1002                 2.2923                 1.8014
 IR Inten    --     19.3485                 0.1943                 1.0539

                     43                     44                     45
                      A                      A                      A
 Frequencies --   1364.8442              1387.9244              1413.4479
 Red. masses --      1.6391                 1.3592                 1.2209
 Frc consts  --      1.7989                 1.5426                 1.4371
 IR Inten    --      0.0839                39.6688                 5.0855

                     46                     47                     48
                      A                      A                      A
 Frequencies --   1421.9431              1485.6339              1489.7218
 Red. masses --      1.6466                 1.1179                 1.0912
 Frc consts  --      1.9616                 1.4537                 1.4268
 IR Inten    --    145.5242                 6.4690                 5.3867

                     49                     50                     51
                      A                      A                      A
 Frequencies --   1499.2073              1547.8421              1646.8543
 Red. masses --      2.0943                 2.2981                 5.7443
 Frc consts  --      2.7734                 3.2439                 9.1790
 IR Inten    --     19.5001                 3.9821                 0.0005

                     52                     53                     54
                      A                      A                      A
 Frequencies --   1668.2546              1834.8134              2909.6177
 Red. masses --      5.6041                12.1689                 1.0805
 Frc consts  --      9.1892                24.1371                 5.3893
 IR Inten    --      0.2115               157.0540                60.3805

                     55                     56                     57
                      A                      A                      A
 Frequencies --   2970.0015              2975.0736              3136.1624
 Red. masses --      1.0706                 1.0725                 1.0902
 Frc consts  --      5.5641                 5.5927                 6.3177
 IR Inten    --      9.8355                64.5102                 4.8328

                     58                     59                     60
                      A                      A                      A
 Frequencies --   3137.1355              3182.4172              3193.2554
 Red. masses --      1.0916                 1.0853                 1.0897
 Frc consts  --      6.3296                 6.4761                 6.5469
 IR Inten    --     15.7181                 0.0107                17.3192

                     61                     62                     63
                      A                      A                      A
 Frequencies --   3205.5348              3225.1471              3226.4864
 Red. masses --      1.0949                 1.0919                 1.0935
 Frc consts  --      6.6287                 6.6917                 6.7071
 IR Inten    --     32.0320                12.6856                 0.4393

 - Thermochemistry -
 -------------------
 Temperature   298.150 Kelvin.  Pressure   1.00000 Atm.
 Atom     1 has atomic number  8 and mass  15.99491

 Molecular mass:   178.06299 amu.
 Principal axes and moments of inertia in atomic units:
                           1         2         3
     Eigenvalues --   702.058944251.257314878.23466
           X            0.99999  -0.00000   0.00451
           Y            0.00000   1.00000  -0.00000
           Z           -0.00451   0.00000   0.99999
 This molecule is an asymmetric top.
 Rotational symmetry number  1.
 Warning -- assumption of classical behavior for rotation
           may cause significant error
 Rotational temperatures (Kelvin)      0.12337     0.02037     0.01776
 Rotational constants (GHZ):           2.57064     0.42452     0.36996
 Zero-point vibrational energy     482315.3 (Joules/Mol)
                                  115.27613 (Kcal/Mol)
 Warning -- explicit consideration of  14 degrees of freedom as
           vibrations may cause significant error
 Vibrational temperatures:     45.33    70.91   177.76   180.22   267.31
          (Kelvin)            353.33   411.14   544.53   600.57   618.22
                              623.30   682.13   730.44   804.65   912.89
                              931.47   997.24  1025.50  1090.63  1168.50
                             1184.76  1247.28  1313.44  1375.15  1404.94
                             1434.12  1446.98  1452.32  1467.12  1525.52
                             1562.00  1565.67  1608.92  1680.47  1717.19
                             1743.17  1765.34  1790.59  1808.39  1844.93
                             1934.41  1961.52  1963.71  1996.91  2033.64
                             2045.86  2137.50  2143.38  2157.02  2227.00
                             2369.46  2400.25  2639.89  4186.29  4273.17
                             4280.47  4512.24  4513.64  4578.79  4594.38
                             4612.05  4640.27  4642.19

 Zero-point correction=                           0.183704 (Hartree/Particle)
 Thermal correction to Energy=                    0.194333
 Thermal correction to Enthalpy=                  0.195278
 Thermal correction to Gibbs Free Energy=         0.145966
 Sum of electronic and zero-point Energies=           -612.538869
 Sum of electronic and thermal Energies=              -612.528239
 Sum of electronic and thermal Enthalpies=            -612.527295
 Sum of electronic and thermal Free Energies=         -612.576607

                     E (Thermal)             CV                S
                      KCal/Mol        Cal/Mol-Kelvin    Cal/Mol-Kelvin
 Total                  121.946             40.934            103.785
 Electronic               0.000              0.000              0.000
 Translational            0.889              2.981             41.438
 Rotational               0.889              2.981             31.055
 Vibrational            120.169             34.972             31.293
 Vibration     1          0.594              1.983              5.732
 Vibration     2          0.595              1.978              4.846
 Vibration     3          0.610              1.929              3.044
 Vibration     4          0.610              1.928              3.018
 Vibration     5          0.632              1.859              2.269
 Vibration     6          0.660              1.770              1.762
 Vibration     7          0.684              1.700              1.499
 Vibration     8          0.749              1.516              1.045
 Vibration     9          0.780              1.432              0.901
 Vibration    10          0.791              1.406              0.860
 Vibration    11          0.794              1.398              0.848
 Vibration    12          0.831              1.307              0.726
 Vibration    13          0.863              1.233              0.639
 Vibration    14          0.915              1.119              0.525

 Optimization completed.
    -- Stationary point found.
 Normal termination of Gaussian 16 at Sat Feb 24 03:52:07 2024.
