 Gaussian 16, Revision A.03,
 Gaussian 16:  EM64M-G16RevA.03 25-Dec-2016

 ---------------------
 # freq b3lyp/6-31g(d)
 ---------------------

 ---------
 good luck
 ---------
 Symbolic Z-matrix:
 Charge =  0 Multiplicity = 1

                         Standard orientation:
 ---------------------------------------------------------------------
 Center     Atomic      Atomic             Coordinates (Angstroms)
 Number     Number       Type             X           Y           Z
 ---------------------------------------------------------------------
      1          8           0        3.223525   -0.000002   -1.587711
      2          6           0        2.367411   -0.000001   -0.727219
      3          6           0        1.756568   -1.291299   -0.200220
      4          8           0        1.191117   -1.170246    1.103299
      5          6           0        0.420990    0.000002    1.305364
      6          6           0       -0.892003    0.000002    0.523136
      7          6           0       -1.524486   -1.207277    0.202181
      8          6           0       -2.758728   -1.207209   -0.449111
      9          6           0       -3.377141   -0.000001   -0.779765
     10          6           0       -2.758729    1.207208   -0.449114
     11          6           0       -1.524486    1.207279    0.202179
     12          8           0        1.191119    1.170248    1.103298
     13          6           0        1.756568    1.291299   -0.200221
     14          1           0        2.527933   -2.063246   -0.146141
     15          1           0        0.999712   -1.614976   -0.933932
     16          1           0        0.212939    0.000003    2.379405
     17          1           0       -1.047870   -2.144856    0.472788
     18          1           0       -3.238183   -2.150737   -0.695968
     19          1           0       -4.337998   -0.000001   -1.287239
     20          1           0       -3.238183    2.150736   -0.695973
     21          1           0       -1.047871    2.144858    0.472783
     22          1           0        2.527935    2.063244   -0.146145
     23          1           0        0.999714    1.614973   -0.933935
 ---------------------------------------------------------------------

 SCF Done:  E(RB3LYP) =  -612.721005886     A.U. after   15 cycles

 The electronic state is 1-A.
 Alpha  occ. eigenvalues --  -19.17061 -19.17061 -19.15428 -10.30006 -10.28918
 Alpha  occ. eigenvalues --  -10.25162 -10.25162 -10.20490 -10.20011 -10.19983
 Alpha  occ. eigenvalues --  -10.19933 -10.19879 -10.19875  -1.08944  -1.05250
 Alpha  occ. eigenvalues --   -1.02133  -0.86304  -0.79185  -0.75497  -0.75303
 Alpha  occ. eigenvalues --   -0.70920  -0.66808  -0.61374  -0.60513  -0.55626
 Alpha  occ. eigenvalues --   -0.53138  -0.52993  -0.50627  -0.48059  -0.47249
 Alpha  occ. eigenvalues --   -0.45788  -0.44803  -0.44252  -0.43447  -0.43070
 Alpha  occ. eigenvalues --   -0.42509  -0.38029  -0.37194  -0.36385  -0.35886
 Alpha  occ. eigenvalues --   -0.35426  -0.34096  -0.30836  -0.28206  -0.25991
 Alpha  occ. eigenvalues --   -0.25722  -0.24159
 Alpha virt. eigenvalues --   -0.03423  -0.01593  -0.01167   0.08704   0.10091
 Alpha virt. eigenvalues --    0.11361   0.11746   0.12696   0.13102   0.14494
 Alpha virt. eigenvalues --    0.15051   0.16472   0.16874   0.17584   0.19292

 Mulliken charges:
               1
     1  O   -0.432642
     2  C    0.417173
     3  C   -0.125168
     4  O   -0.469442
     5  C    0.275116
     6  C    0.065900
     7  C   -0.170714
     8  C   -0.132968
     9  C   -0.123620
    10  C   -0.132968
    11  C   -0.170714
    12  O   -0.469441
    13  C   -0.125168
    14  H    0.189141
    15  H    0.170557
    16  H    0.171999
    17  H    0.148195
    18  H    0.135853
    19  H    0.135164
    20  H    0.135853
    21  H    0.148195
    22  H    0.189141
    23  H    0.170557
 Sum of Mulliken charges =  -0.00000

 Dipole moment (field-independent basis, Debye):
    X=             -2.6185    Y=             -0.0000    Z=             -0.1835  Tot=              2.6249
 Quadrupole moment (field-independent basis, Debye-Ang):
   XX=            -78.0883   YY=            -69.1283   ZZ=            -79.4526
   XY=              0.0000   XZ=              5.8380   YZ=             -0.0000

  Exact polarizability: 125.095   0.000 108.104  11.767  -0.000  73.757
 Approx polarizability: 175.623   0.000 180.219  23.332  -0.000 120.941

                      1                      2                      3
                      A                      A                      A
 Frequencies --     47.5496                60.5250               126.0622
 Red. masses --      8.2226                 3.6634                 3.4446
 Frc consts  --      0.0110                 0.0079                 0.0323
 IR Inten    --      2.1790                 0.0101                 5.1440

                      4                      5                      6
                      A                      A                      A
 Frequencies --    136.3058               226.5393               231.4539
 Red. masses --      2.9261                 4.6215                 4.1312
 Frc consts  --      0.0320                 0.1397                 0.1304
 IR Inten    --      0.1586                 0.5603                 8.2028

                      7                      8                      9
                      A                      A                      A
 Frequencies --    353.5448               384.1843               423.3286
 Red. masses --      5.0420                 6.2850                 3.0871
 Frc consts  --      0.3713                 0.5466                 0.3260
 IR Inten    --     13.9071                16.3615                 0.0053

                     10                     11                     12
                      A                      A                      A
 Frequencies --    424.3804               464.6089               470.5881
 Red. masses --      2.7804                 6.0106                 3.2889
 Frc consts  --      0.2950                 0.7644                 0.4291
 IR Inten    --      2.7530                 4.3495                 3.5394

                     13                     14                     15
                      A                      A                      A
 Frequencies --    506.1736               546.9468               633.2853
 Red. masses --      5.1434                 6.0989                 6.4074
 Frc consts  --      0.7764                 1.0750                 1.5140
 IR Inten    --      6.2682                 8.2753                 0.2370

                     16                     17                     18
                      A                      A                      A
 Frequencies --    640.8473               707.5905               721.7767
 Red. masses --      6.5439                 5.1294                 2.8924
 Frc consts  --      1.5834                 1.5131                 0.8878
 IR Inten    --      5.0277                 2.2707                18.5346

                     19                     20                     21
                      A                      A                      A
 Frequencies --    754.1401               820.5538               827.6331
 Red. masses --      1.5044                 3.6684                 1.5657
 Frc consts  --      0.5041                 1.4553                 0.6319
 IR Inten    --     46.4174                 0.5104                 0.1776

                     22                     23                     24
                      A                      A                      A
 Frequencies --    876.3056               909.7921               952.0183
 Red. masses --      1.2426                 2.4747                 1.8563
 Frc consts  --      0.5622                 1.2069                 0.9913
 IR Inten    --      0.2564                13.6812                19.5934

                     25                     26                     27
                      A                      A                      A
 Frequencies --    964.3629               987.2845               988.8439
 Red. masses --      3.7168                 1.3442                 3.1113
 Frc consts  --      2.0366                 0.7719                 1.7924
 IR Inten    --     47.0187                 0.1753                12.3743

                     28                     29                     30
                      A                      A                      A
 Frequencies --   1007.5980              1018.9417              1057.9225
 Red. masses --      1.3554                 5.9464                 2.1865
 Frc consts  --      0.8108                 3.6375                 1.4418
 IR Inten    --      3.0098                 0.4487                 4.0432

                     31                     32                     33
                      A                      A                      A
 Frequencies --   1077.2366              1096.4429              1115.3888
 Red. masses --      6.1321                 2.4450                 1.6639
 Frc consts  --      4.1926                 1.7318                 1.2196
 IR Inten    --     80.9055                 1.0718                 3.4328

                     34                     35                     36
                      A                      A                      A
 Frequencies --   1156.0449              1193.4610              1207.0297
 Red. masses --      5.7862                 1.1044                 1.1925
 Frc consts  --      4.5561                 0.9268                 1.0236
 IR Inten    --    170.2305                 0.0031                27.1414

                     37                     38                     39
                      A                      A                      A
 Frequencies --   1232.7593              1238.5876              1263.7709
 Red. masses --      3.5260                 2.5502                 1.4832
 Frc consts  --      3.1571                 2.3050                 1.3957
 IR Inten    --    106.3739                27.4115                22.1916

                     40                     41                     42
                      A                      A                      A
 Frequencies --   1290.5922              1337.2180              1361.8742
 Red. masses --      1.1414                 2.0581                 2.2036
 Frc consts  --      1.1201                 2.1683                 2.4080
 IR Inten    --      0.0022                 1.5179                 0.5149

                     43                     44                     45
                      A                      A                      A
 Frequencies --   1364.5827              1366.2542              1397.9183
 Red. masses --      1.2531                 1.2967                 1.3770
 Frc consts  --      1.3748                 1.4261                 1.5854
 IR Inten    --     57.3563                 0.1164                19.6091

                     46                     47                     48
                      A                      A                      A
 Frequencies --   1408.9037              1486.6013              1493.2013
 Red. masses --      1.3224                 1.1492                 1.0817
 Frc consts  --      1.5466                 1.4963                 1.4210
 IR Inten    --      1.1458                 5.2013                 1.7213

                     49                     50                     51
                      A                      A                      A
 Frequencies --   1497.3679              1541.2967              1643.3816
 Red. masses --      1.9467                 2.1990                 5.6464
 Frc consts  --      2.5717                 3.0779                 8.9846
 IR Inten    --     21.1279                 4.5182                 0.0727

                     52                     53                     54
                      A                      A                      A
 Frequencies --   1663.1450              1832.6729              3000.7099
 Red. masses --      5.5356                12.1097                 1.0692
 Frc consts  --      9.0214                23.9637                 5.6720
 IR Inten    --      0.0343               158.7868                 4.7844

                     55                     56                     57
                      A                      A                      A
 Frequencies --   3004.7499              3097.8790              3134.9170
 Red. masses --      1.0708                 1.0868                 1.0918
 Frc consts  --      5.6961                 6.1454                 6.3219
 IR Inten    --     36.8251                22.6973                 6.1043

                     58                     59                     60
                      A                      A                      A
 Frequencies --   3135.8410              3183.6536              3192.4069
 Red. masses --      1.0933                 1.0851                 1.0884
 Frc consts  --      6.3340                 6.4799                 6.5352
 IR Inten    --     17.5499                 0.2753                 8.8265

                     61                     62                     63
                      A                      A                      A
 Frequencies --   3203.3531              3210.1999              3214.4973
 Red. masses --      1.0916                 1.0930                 1.0970
 Frc consts  --      6.5994                 6.6367                 6.6785
 IR Inten    --     20.4836                19.1206                 7.7953

 - Thermochemistry -
 -------------------
 Temperature   298.150 Kelvin.  Pressure   1.00000 Atm.
 Atom     1 has atomic number  8 and mass  15.99491

 Molecular mass:   178.06299 amu.
 Principal axes and moments of inertia in atomic units:
                           1         2         3
     Eigenvalues --  1143.298163324.511773511.21682
           X            0.99994   0.00000   0.01053
           Y           -0.00000   1.00000  -0.00000
           Z           -0.01053   0.00000   0.99994
 This molecule is an asymmetric top.
 Rotational symmetry number  1.
 Warning -- assumption of classical behavior for rotation
           may cause significant error
 Rotational temperatures (Kelvin)      0.07576     0.02605     0.02467
 Rotational constants (GHZ):           1.57854     0.54286     0.51399
 Zero-point vibrational energy     483979.3 (Joules/Mol)
                                  115.67384 (Kcal/Mol)
 Warning -- explicit consideration of  14 degrees of freedom as
           vibrations may cause significant error
 Vibrational temperatures:     68.41    87.08   181.38   196.11   325.94
          (Kelvin)            333.01   508.67   552.76   609.08   610.59
                              668.47   677.07   728.27   786.93   911.16
                              922.04  1018.06  1038.48  1085.04  1180.59
                             1190.78  1260.81  1308.99  1369.74  1387.50
                             1420.48  1422.73  1449.71  1466.03  1522.11
                             1549.90  1577.54  1604.80  1663.29  1717.12
                             1736.65  1773.67  1782.05  1818.28  1856.87
                             1923.96  1959.43  1963.33  1965.74  2011.29
                             2027.10  2138.89  2148.38  2154.38  2217.58
                             2364.46  2392.89  2636.81  4317.35  4323.16
                             4457.16  4510.45  4511.78  4580.57  4593.16
                             4608.91  4618.76  4624.94

 Zero-point correction=                           0.184338 (Hartree/Particle)
 Thermal correction to Energy=                    0.194741
 Thermal correction to Enthalpy=                  0.195685
 Thermal correction to Gibbs Free Energy=         0.147417
 Sum of electronic and zero-point Energies=           -612.536668
 Sum of electronic and thermal Energies=              -612.526265
 Sum of electronic and thermal Enthalpies=            -612.525321
 Sum of electronic and thermal Free Energies=         -612.573589

                     E (Thermal)             CV                S
                      KCal/Mol        Cal/Mol-Kelvin    Cal/Mol-Kelvin
 Total                  122.202             40.730            101.588
 Electronic               0.000              0.000              0.000
 Translational            0.889              2.981             41.438
 Rotational               0.889              2.981             30.968
 Vibrational            120.424             34.769             29.182
 Vibration     1          0.595              1.979              4.917
 Vibration     2          0.597              1.973              4.440
 Vibration     3          0.611              1.927              3.005
 Vibration     4          0.614              1.917              2.855
 Vibration     5          0.650              1.801              1.906
 Vibration     6          0.653              1.793              1.868
 Vibration     7          0.730              1.568              1.150
 Vibration     8          0.753              1.504              1.023
 Vibration     9          0.785              1.420              0.881
 Vibration    10          0.786              1.417              0.877
 Vibration    11          0.822              1.329              0.753
 Vibration    12          0.828              1.315              0.736
 Vibration    13          0.861              1.236              0.643
 Vibration    14          0.902              1.146              0.551

 Normal termination of Gaussian 16 at Sat Feb 24 03:50:03 2024.
