 Gaussian 16, Revision A.03,
 Gaussian 16:  EM64M-G16RevA.03 25-Dec-2016

 ---------------------
 # freq b3lyp/6-31g(d)
 ---------------------

 ---------
 good luck
 ---------
 Symbolic Z-matrix:
 Charge =  0 Multiplicity = 1

                         Standard orientation:
 ---------------------------------------------------------------------
 Center     Atomic      Atomic             Coordinates (Angstroms)
 Number     Number       Type             X           Y           Z
 ---------------------------------------------------------------------
      1          8           0        2.758388    0.168049   -0.397024
      2          6           0        1.687189   -0.115384    0.105526
      3          6           0        0.879152    0.875671    0.933801
      4          6           0       -0.587940    0.982816    0.446420
      5          6           0       -0.659625    1.734289   -0.893694
      6          6           0       -1.233797   -0.429305    0.424310
      7          6           0       -2.717424   -0.408479    0.033321
      8          6           0       -0.431204   -1.401779   -0.460535
      9          6           0        1.050609   -1.491518   -0.040920
     10          1           0        1.386033    1.845374    0.911097
     11          1           0        0.883501    0.519001    1.975124
     12          1           0       -1.137353    1.581174    1.187060
     13          1           0       -0.108728    1.219015   -1.689215
     14          1           0       -0.217200    2.731637   -0.791371
     15          1           0       -1.692979    1.864805   -1.230856
     16          1           0       -1.174751   -0.807967    1.457756
     17          1           0       -3.281953    0.301246    0.650080
     18          1           0       -3.167661   -1.398877    0.168138
     19          1           0       -2.858186   -0.125547   -1.016135
     20          1           0       -0.493740   -1.083811   -1.509790
     21          1           0       -0.883130   -2.400741   -0.418032
     22          1           0        1.113331   -1.987744    0.940043
     23          1           0        1.643940   -2.079822   -0.747084
 ---------------------------------------------------------------------

 SCF Done:  E(RB3LYP) =  -388.517202867     A.U. after   13 cycles

 The electronic state is 1-A.
 Alpha  occ. eigenvalues --  -19.13113 -10.26705 -10.19899 -10.19582 -10.19139
 Alpha  occ. eigenvalues --  -10.18948 -10.18735 -10.17997 -10.17805  -1.02972
 Alpha  occ. eigenvalues --   -0.84156  -0.76709  -0.75325  -0.69817  -0.65662
 Alpha  occ. eigenvalues --   -0.61575  -0.56333  -0.52208  -0.46427  -0.46052
 Alpha  occ. eigenvalues --   -0.45229  -0.44739  -0.43767  -0.40993  -0.40055
 Alpha  occ. eigenvalues --   -0.39114  -0.38038  -0.37811  -0.36141  -0.34931
 Alpha  occ. eigenvalues --   -0.34509  -0.31936  -0.31675  -0.31114  -0.23308
 Alpha virt. eigenvalues --   -0.01172   0.07977   0.10275   0.11021   0.12364
 Alpha virt. eigenvalues --    0.13030   0.15139   0.15388   0.15776   0.16140
 Alpha virt. eigenvalues --    0.17211   0.18441   0.19249   0.19859   0.20476

 Mulliken charges:
               1
     1  O   -0.448412
     2  C    0.451945
     3  C   -0.348093
     4  C   -0.086656
     5  C   -0.459264
     6  C   -0.074769
     7  C   -0.453999
     8  C   -0.274304
     9  C   -0.346339
    10  H    0.158202
    11  H    0.149623
    12  H    0.126393
    13  H    0.153294
    14  H    0.150589
    15  H    0.149573
    16  H    0.118506
    17  H    0.143158
    18  H    0.143925
    19  H    0.147652
    20  H    0.145092
    21  H    0.139555
    22  H    0.152476
    23  H    0.161854
 Sum of Mulliken charges =  -0.00000

 Dipole moment (field-independent basis, Debye):
    X=             -2.8455    Y=             -0.6028    Z=              1.1070  Tot=              3.1122
 Quadrupole moment (field-independent basis, Debye-Ang):
   XX=            -66.5577   YY=            -54.3401   ZZ=            -55.2519
   XY=             -1.4602   XZ=              2.6458   YZ=              0.2292

  Exact polarizability:  91.872   1.670  82.818  -2.581   0.590  72.142
 Approx polarizability: 124.778   4.682 112.720  -8.741  -1.041 111.189

                      1                      2                      3
                      A                      A                      A
 Frequencies --     76.5182               117.6890               183.8547
 Red. masses --      5.1210                 2.8053                 1.6861
 Frc consts  --      0.0177                 0.0229                 0.0336
 IR Inten    --      3.1243                 0.6466                 0.4395

                      4                      5                      6
                      A                      A                      A
 Frequencies --    219.8145               253.0526               280.8068
 Red. masses --      1.0783                 1.2885                 2.2522
 Frc consts  --      0.0307                 0.0486                 0.1046
 IR Inten    --      0.0456                 0.0750                 0.0241

                      7                      8                      9
                      A                      A                      A
 Frequencies --    310.7557               353.3792               383.6528
 Red. masses --      2.5889                 2.4725                 2.6162
 Frc consts  --      0.1473                 0.1819                 0.2269
 IR Inten    --      0.6449                 0.4882                 1.4029

                     10                     11                     12
                      A                      A                      A
 Frequencies --    459.5061               493.6218               506.8745
 Red. masses --      2.6036                 2.5246                 3.0871
 Frc consts  --      0.3239                 0.3624                 0.4673
 IR Inten    --      3.8323                 2.5243                 6.1825

                     13                     14                     15
                      A                      A                      A
 Frequencies --    561.5742               694.0255               724.3435
 Red. masses --      2.6572                 3.2789                 3.0787
 Frc consts  --      0.4937                 0.9305                 0.9517
 IR Inten    --      2.0392                 0.5918                 1.5194

                     16                     17                     18
                      A                      A                      A
 Frequencies --    783.4010               843.3698               860.4833
 Red. masses --      1.8794                 1.9328                 2.0964
 Frc consts  --      0.6796                 0.8100                 0.9146
 IR Inten    --      3.2197                 0.8275                 1.7243

                     19                     20                     21
                      A                      A                      A
 Frequencies --    943.5986               951.8105               971.4858
 Red. masses --      1.9026                 1.7524                 1.4529
 Frc consts  --      0.9981                 0.9353                 0.8079
 IR Inten    --      1.1040                 0.2465                 1.1906

                     22                     23                     24
                      A                      A                      A
 Frequencies --    999.8489              1025.7938              1037.4405
 Red. masses --      1.6531                 1.8417                 1.5627
 Frc consts  --      0.9737                 1.1418                 0.9910
 IR Inten    --      3.5335                 2.1046                 0.4145

                     25                     26                     27
                      A                      A                      A
 Frequencies --   1091.0776              1102.3349              1116.0267
 Red. masses --      1.2940                 1.9744                 1.9343
 Frc consts  --      0.9076                 1.4136                 1.4195
 IR Inten    --      1.3510                17.8897                 6.0693

                     28                     29                     30
                      A                      A                      A
 Frequencies --   1157.6290              1207.5890              1222.8909
 Red. masses --      2.0186                 1.8947                 2.1482
 Frc consts  --      1.5938                 1.6279                 1.8928
 IR Inten    --      2.5851                18.9818                13.9554

                     31                     32                     33
                      A                      A                      A
 Frequencies --   1253.6781              1279.2364              1296.6833
 Red. masses --      1.2401                 1.4292                 1.5350
 Frc consts  --      1.1484                 1.3780                 1.5206
 IR Inten    --      2.4853                10.0597                 1.4543

                     34                     35                     36
                      A                      A                      A
 Frequencies --   1341.1310              1357.2276              1372.2617
 Red. masses --      1.3819                 1.3985                 1.3843
 Frc consts  --      1.4645                 1.5178                 1.5358
 IR Inten    --      4.2980                 2.6487                 3.9810

                     37                     38                     39
                      A                      A                      A
 Frequencies --   1373.3150              1403.1582              1417.7433
 Red. masses --      1.5365                 1.3900                 1.5087
 Frc consts  --      1.7074                 1.6125                 1.7866
 IR Inten    --     11.6190                 0.7774                 0.6583

                     40                     41                     42
                      A                      A                      A
 Frequencies --   1440.5032              1447.5536              1491.5731
 Red. masses --      1.2594                 1.2410                 1.0978
 Frc consts  --      1.5397                 1.5321                 1.4390
 IR Inten    --      3.3367                 7.7937                 7.0879

                     43                     44                     45
                      A                      A                      A
 Frequencies --   1501.1168              1520.0072              1526.0870
 Red. masses --      1.0854                 1.0689                 1.0485
 Frc consts  --      1.4410                 1.4551                 1.4388
 IR Inten    --      9.3097                 0.1105                 7.3661

                     46                     47                     48
                      A                      A                      A
 Frequencies --   1530.4733              1537.8892              1541.5922
 Red. masses --      1.0463                 1.0695                 1.0507
 Frc consts  --      1.4440                 1.4904                 1.4711
 IR Inten    --      6.6388                 5.0714                 0.8966

                     49                     50                     51
                      A                      A                      A
 Frequencies --   1817.1845              2991.1319              3017.2524
 Red. masses --     10.9574                 1.0828                 1.0713
 Frc consts  --     21.3185                 5.7080                 5.7463
 IR Inten    --    183.2644                22.2675                 2.7185

                     52                     53                     54
                      A                      A                      A
 Frequencies --   3021.7361              3031.8670              3041.0812
 Red. masses --      1.0745                 1.0760                 1.0531
 Frc consts  --      5.7808                 5.8275                 5.7383
 IR Inten    --     21.4021                42.2290                15.0416

                     55                     56                     57
                      A                      A                      A
 Frequencies --   3045.3020              3053.8465              3077.9564
 Red. masses --      1.0408                 1.0387                 1.1029
 Frc consts  --      5.6868                 5.7075                 6.1564
 IR Inten    --     37.5716                20.1275                37.9677

                     58                     59                     60
                      A                      A                      A
 Frequencies --   3108.4409              3110.2510              3112.7431
 Red. masses --      1.1023                 1.0978                 1.1004
 Frc consts  --      6.2751                 6.2570                 6.2821
 IR Inten    --     28.6593                 0.5512                48.8749

                     61                     62                     63
                      A                      A                      A
 Frequencies --   3114.6622              3117.0817              3126.3059
 Red. masses --      1.0998                 1.0946                 1.1013
 Frc consts  --      6.2863                 6.2660                 6.3421
 IR Inten    --     42.2140                27.6866                27.1368

 - Thermochemistry -
 -------------------
 Temperature   298.150 Kelvin.  Pressure   1.00000 Atm.
 Atom     1 has atomic number  8 and mass  15.99491

 Molecular mass:   126.10447 amu.
 Principal axes and moments of inertia in atomic units:
                           1         2         3
     Eigenvalues --   704.839311382.977091740.91742
           X            0.99992  -0.00459   0.01219
           Y            0.00467   0.99996  -0.00702
           Z           -0.01216   0.00707   0.99990
 This molecule is an asymmetric top.
 Rotational symmetry number  1.
 Warning -- assumption of classical behavior for rotation
           may cause significant error
 Rotational temperatures (Kelvin)      0.12288     0.06263     0.04975
 Rotational constants (GHZ):           2.56050     1.30497     1.03666
 Zero-point vibrational energy     546408.2 (Joules/Mol)
                                  130.59470 (Kcal/Mol)
 Warning -- explicit consideration of  13 degrees of freedom as
           vibrations may cause significant error
 Vibrational temperatures:    110.09   169.33   264.53   316.26   364.09
          (Kelvin)            404.02   447.11   508.43   551.99   661.13
                              710.21   729.28   807.98   998.55  1042.17
                             1127.14  1213.42  1238.04  1357.63  1369.44
                             1397.75  1438.56  1475.89  1492.65  1569.82
                             1586.01  1605.71  1665.57  1737.45  1759.47
                             1803.76  1840.54  1865.64  1929.59  1952.75
                             1974.38  1975.89  2018.83  2039.82  2072.56
                             2082.71  2146.04  2159.77  2186.95  2195.70
                             2202.01  2212.68  2218.01  2614.52  4303.57
                             4341.15  4347.60  4362.18  4375.44  4381.51
                             4393.80  4428.49  4472.35  4474.96  4478.54
                             4481.30  4484.79  4498.06

 Zero-point correction=                           0.208116 (Hartree/Particle)
 Thermal correction to Energy=                    0.217371
 Thermal correction to Enthalpy=                  0.218316
 Thermal correction to Gibbs Free Energy=         0.174392
 Sum of electronic and zero-point Energies=           -388.309087
 Sum of electronic and thermal Energies=              -388.299831
 Sum of electronic and thermal Enthalpies=            -388.298887
 Sum of electronic and thermal Free Energies=         -388.342811

                     E (Thermal)             CV                S
                      KCal/Mol        Cal/Mol-Kelvin    Cal/Mol-Kelvin
 Total                  136.403             35.793             92.445
 Electronic               0.000              0.000              0.000
 Translational            0.889              2.981             40.409
 Rotational               0.889              2.981             28.919
 Vibrational            134.625             29.831             23.117
 Vibration     1          0.599              1.965              3.978
 Vibration     2          0.608              1.935              3.138
 Vibration     3          0.631              1.862              2.289
 Vibration     4          0.647              1.811              1.961
 Vibration     5          0.664              1.758              1.709
 Vibration     6          0.680              1.709              1.529
 Vibration     7          0.700              1.653              1.358
 Vibration     8          0.730              1.568              1.151
 Vibration     9          0.753              1.505              1.025
 Vibration    10          0.817              1.340              0.768
 Vibration    11          0.849              1.264              0.674
 Vibration    12          0.862              1.235              0.641
 Vibration    13          0.917              1.114              0.521

 Normal termination of Gaussian 16 at Wed Feb 21 19:02:53 2024.
