 Gaussian 16, Revision A.03,
 Gaussian 16:  EM64M-G16RevA.03 25-Dec-2016

 ---------------------
 # freq b3lyp/6-31g(d)
 ---------------------

 ---------
 good luck
 ---------
 Symbolic Z-matrix:
 Charge =  0 Multiplicity = 1

                         Standard orientation:
 ---------------------------------------------------------------------
 Center     Atomic      Atomic             Coordinates (Angstroms)
 Number     Number       Type             X           Y           Z
 ---------------------------------------------------------------------
      1          8           0        2.704372   -0.927796    0.042596
      2          6           0        1.621346   -0.392037    0.184993
      3          6           0        0.346102   -1.185346    0.438454
      4          6           0       -0.820276   -0.746397   -0.479053
      5          6           0       -2.079515   -1.577477   -0.203858
      6          6           0       -1.054627    0.786416   -0.412961
      7          6           0       -1.644701    1.281669    0.918894
      8          6           0        0.254805    1.519517   -0.775062
      9          6           0        1.441475    1.118906    0.126243
     10          1           0        0.058338   -1.034236    1.490526
     11          1           0        0.571521   -2.249442    0.315018
     12          1           0       -0.509152   -0.960929   -1.513125
     13          1           0       -2.910840   -1.260563   -0.845354
     14          1           0       -1.893175   -2.639807   -0.399111
     15          1           0       -2.406143   -1.488155    0.838709
     16          1           0       -1.787737    1.029037   -1.196148
     17          1           0       -1.757924    2.372032    0.900637
     18          1           0       -2.634794    0.852875    1.104068
     19          1           0       -1.013654    1.034137    1.780301
     20          1           0        0.513193    1.289267   -1.817672
     21          1           0        0.106942    2.605547   -0.724402
     22          1           0        1.261374    1.472577    1.152413
     23          1           0        2.379433    1.568514   -0.212531
 ---------------------------------------------------------------------

 SCF Done:  E(RB3LYP) =  -388.516715974     A.U. after   13 cycles

 The electronic state is 1-A.
 Alpha  occ. eigenvalues --  -19.13045 -10.26683 -10.19909 -10.19604 -10.19173
 Alpha  occ. eigenvalues --  -10.18898 -10.18735 -10.18141 -10.18050  -1.02932
 Alpha  occ. eigenvalues --   -0.84160  -0.76984  -0.74846  -0.69984  -0.66681
 Alpha  occ. eigenvalues --   -0.60883  -0.55936  -0.51904  -0.48546  -0.46860
 Alpha  occ. eigenvalues --   -0.44636  -0.43751  -0.43181  -0.41394  -0.40002
 Alpha  occ. eigenvalues --   -0.38840  -0.38139  -0.37652  -0.36827  -0.35294
 Alpha  occ. eigenvalues --   -0.34367  -0.32074  -0.31488  -0.31047  -0.23316
 Alpha virt. eigenvalues --   -0.00988   0.07183   0.09223   0.11575   0.13174
 Alpha virt. eigenvalues --    0.13678   0.14714   0.15196   0.15442   0.15963
 Alpha virt. eigenvalues --    0.17286   0.18364   0.19067   0.19886   0.20670

 Mulliken charges:
               1
     1  O   -0.448886
     2  C    0.449789
     3  C   -0.347665
     4  C   -0.085408
     5  C   -0.452265
     6  C   -0.076177
     7  C   -0.460942
     8  C   -0.278477
     9  C   -0.348181
    10  H    0.152654
    11  H    0.160284
    12  H    0.130831
    13  H    0.143858
    14  H    0.147955
    15  H    0.145789
    16  H    0.125277
    17  H    0.145725
    18  H    0.151636
    19  H    0.142958
    20  H    0.142090
    21  H    0.138748
    22  H    0.157255
    23  H    0.163152
 Sum of Mulliken charges =  -0.00000

 Dipole moment (field-independent basis, Debye):
    X=             -2.8687    Y=              1.3202    Z=              0.1610  Tot=              3.1620
 Quadrupole moment (field-independent basis, Debye-Ang):
   XX=            -66.0397   YY=            -56.0781   ZZ=            -54.9245
   XY=              4.4618   XZ=              0.4656   YZ=             -0.0356

  Exact polarizability:  92.112  -0.684  85.405  -1.101   0.018  69.925
 Approx polarizability: 126.708  -7.608 115.710  -2.607   1.092 106.732

                      1                      2                      3
                      A                      A                      A
 Frequencies --     77.6129               130.3561               188.5844
 Red. masses --      4.2927                 2.3309                 2.2849
 Frc consts  --      0.0152                 0.0233                 0.0479
 IR Inten    --      2.8208                 0.8178                 0.7188

                      4                      5                      6
                      A                      A                      A
 Frequencies --    215.6687               246.6474               279.3258
 Red. masses --      1.1675                 1.2656                 1.8296
 Frc consts  --      0.0320                 0.0454                 0.0841
 IR Inten    --      0.2135                 0.0432                 0.0508

                      7                      8                      9
                      A                      A                      A
 Frequencies --    294.2357               373.1964               402.8516
 Red. masses --      2.8430                 2.0551                 3.0890
 Frc consts  --      0.1450                 0.1686                 0.2954
 IR Inten    --      0.9911                 0.7024                 1.0897

                     10                     11                     12
                      A                      A                      A
 Frequencies --    422.2145               493.6911               516.7830
 Red. masses --      2.2129                 3.2882                 2.4765
 Frc consts  --      0.2324                 0.4722                 0.3897
 IR Inten    --      1.4039                 7.5651                 4.4821

                     13                     14                     15
                      A                      A                      A
 Frequencies --    566.3553               660.0225               756.9134
 Red. masses --      2.7655                 3.4613                 1.9452
 Frc consts  --      0.5226                 0.8884                 0.6566
 IR Inten    --      1.0946                 2.1307                 2.9744

                     16                     17                     18
                      A                      A                      A
 Frequencies --    778.6560               834.1903               863.7678
 Red. masses --      2.3914                 2.4163                 1.9552
 Frc consts  --      0.8543                 0.9907                 0.8595
 IR Inten    --      3.1421                 2.6340                 1.9602

                     19                     20                     21
                      A                      A                      A
 Frequencies --    935.3424               956.8298               970.3780
 Red. masses --      1.7889                 1.8209                 1.7217
 Frc consts  --      0.9221                 0.9822                 0.9552
 IR Inten    --      1.3291                 0.3337                 1.1849

                     22                     23                     24
                      A                      A                      A
 Frequencies --    994.4024              1017.1155              1044.2072
 Red. masses --      1.5615                 1.5559                 1.5932
 Frc consts  --      0.9098                 0.9483                 1.0235
 IR Inten    --      1.4697                 0.6677                 1.3077

                     25                     26                     27
                      A                      A                      A
 Frequencies --   1087.6795              1105.9014              1134.1850
 Red. masses --      1.4559                 2.3045                 1.4624
 Frc consts  --      1.0148                 1.6606                 1.1084
 IR Inten    --      5.0901                 3.1453                 2.1335

                     28                     29                     30
                      A                      A                      A
 Frequencies --   1157.2922              1184.8912              1247.1263
 Red. masses --      2.1279                 2.2051                 1.3431
 Frc consts  --      1.6792                 1.8241                 1.2308
 IR Inten    --      3.3890                33.4418                 1.5180

                     31                     32                     33
                      A                      A                      A
 Frequencies --   1253.9137              1262.2421              1314.4100
 Red. masses --      1.4220                 1.9288                 1.4950
 Frc consts  --      1.3173                 1.8106                 1.5218
 IR Inten    --      1.4548                24.1879                 9.1564

                     34                     35                     36
                      A                      A                      A
 Frequencies --   1343.9698              1352.1916              1365.8232
 Red. masses --      1.2883                 1.4825                 1.3930
 Frc consts  --      1.3711                 1.5971                 1.5310
 IR Inten    --      2.3728                 1.9170                 0.4721

                     37                     38                     39
                      A                      A                      A
 Frequencies --   1389.8175              1401.0973              1408.6842
 Red. masses --      1.5341                 1.4914                 1.3184
 Frc consts  --      1.7459                 1.7250                 1.5414
 IR Inten    --     13.5775                 0.7337                 8.5423

                     40                     41                     42
                      A                      A                      A
 Frequencies --   1439.3391              1445.5546              1491.2790
 Red. masses --      1.2616                 1.2569                 1.0910
 Frc consts  --      1.5399                 1.5474                 1.4296
 IR Inten    --      3.2930                 9.7802                 7.7243

                     43                     44                     45
                      A                      A                      A
 Frequencies --   1500.9470              1523.4052              1525.9126
 Red. masses --      1.0815                 1.0823                 1.0520
 Frc consts  --      1.4355                 1.4799                 1.4432
 IR Inten    --      6.9369                 4.6521                 3.3102

                     46                     47                     48
                      A                      A                      A
 Frequencies --   1528.9283              1534.5577              1542.1306
 Red. masses --      1.0506                 1.0513                 1.0523
 Frc consts  --      1.4470                 1.4586                 1.4745
 IR Inten    --     12.1669                 1.9055                 1.2504

                     49                     50                     51
                      A                      A                      A
 Frequencies --   1817.1617              3002.4062              3018.3634
 Red. masses --     11.0284                 1.0819                 1.0803
 Frc consts  --     21.4560                 5.7464                 5.7988
 IR Inten    --    200.4237                12.2588                15.8547

                     52                     53                     54
                      A                      A                      A
 Frequencies --   3024.2763              3030.7404              3040.6993
 Red. masses --      1.0692                 1.0695                 1.0634
 Frc consts  --      5.7618                 5.7880                 5.7928
 IR Inten    --     12.5025                 3.2764                66.0079

                     55                     56                     57
                      A                      A                      A
 Frequencies --   3043.6432              3051.8748              3076.9205
 Red. masses --      1.0360                 1.0384                 1.1018
 Frc consts  --      5.6547                 5.6982                 6.1461
 IR Inten    --     25.9871                16.0114                37.5771

                     58                     59                     60
                      A                      A                      A
 Frequencies --   3106.7554              3108.7232              3110.1351
 Red. masses --      1.0962                 1.1016                 1.1012
 Frc consts  --      6.2338                 6.2723                 6.2759
 IR Inten    --      7.3738                 9.1739                69.6434

                     61                     62                     63
                      A                      A                      A
 Frequencies --   3113.1325              3117.5019              3123.9279
 Red. masses --      1.1003                 1.0952                 1.1008
 Frc consts  --      6.2828                 6.2715                 6.3292
 IR Inten    --     44.2706                26.0057                23.6647

 - Thermochemistry -
 -------------------
 Temperature   298.150 Kelvin.  Pressure   1.00000 Atm.
 Atom     1 has atomic number  8 and mass  15.99491

 Molecular mass:   126.10447 amu.
 Principal axes and moments of inertia in atomic units:
                           1         2         3
     Eigenvalues --   791.917581304.926361784.64159
           X            0.99828   0.05820  -0.00715
           Y           -0.05815   0.99829   0.00628
           Z            0.00751  -0.00585   0.99995
 This molecule is an asymmetric top.
 Rotational symmetry number  1.
 Warning -- assumption of classical behavior for rotation
           may cause significant error
 Rotational temperatures (Kelvin)      0.10937     0.06637     0.04853
 Rotational constants (GHZ):           2.27895     1.38302     1.01126
 Zero-point vibrational energy     546375.7 (Joules/Mol)
                                  130.58693 (Kcal/Mol)
 Warning -- explicit consideration of  13 degrees of freedom as
           vibrations may cause significant error
 Vibrational temperatures:    111.67   187.55   271.33   310.30   354.87
          (Kelvin)            401.89   423.34   536.95   579.61   607.47
                              710.31   743.54   814.86   949.63  1089.03
                             1120.31  1200.21  1242.77  1345.75  1376.66
                             1396.16  1430.72  1463.40  1502.38  1564.93
                             1591.15  1631.84  1665.09  1704.79  1794.34
                             1804.10  1816.08  1891.14  1933.67  1945.50
                             1965.11  1999.64  2015.87  2026.78  2070.89
                             2079.83  2145.62  2159.53  2191.84  2195.45
                             2199.79  2207.89  2218.78  2614.49  4319.79
                             4342.75  4351.26  4360.56  4374.89  4379.12
                             4390.97  4427.00  4469.93  4472.76  4474.79
                             4479.10  4485.39  4494.64

 Zero-point correction=                           0.208104 (Hartree/Particle)
 Thermal correction to Energy=                    0.217353
 Thermal correction to Enthalpy=                  0.218297
 Thermal correction to Gibbs Free Energy=         0.174403
 Sum of electronic and zero-point Energies=           -388.308612
 Sum of electronic and thermal Energies=              -388.299363
 Sum of electronic and thermal Enthalpies=            -388.298419
 Sum of electronic and thermal Free Energies=         -388.342313

                     E (Thermal)             CV                S
                      KCal/Mol        Cal/Mol-Kelvin    Cal/Mol-Kelvin
 Total                  136.391             35.820             92.383
 Electronic               0.000              0.000              0.000
 Translational            0.889              2.981             40.409
 Rotational               0.889              2.981             29.002
 Vibrational            134.614             29.859             22.972
 Vibration     1          0.599              1.964              3.950
 Vibration     2          0.612              1.923              2.941
 Vibration     3          0.633              1.856              2.242
 Vibration     4          0.645              1.817              1.995
 Vibration     5          0.661              1.768              1.754
 Vibration     6          0.680              1.712              1.538
 Vibration     7          0.689              1.684              1.449
 Vibration     8          0.745              1.527              1.067
 Vibration     9          0.768              1.464              0.952
 Vibration    10          0.785              1.422              0.884
 Vibration    11          0.849              1.264              0.674
 Vibration    12          0.872              1.213              0.617
 Vibration    13          0.922              1.104              0.511

 Normal termination of Gaussian 16 at Wed Feb 21 19:04:34 2024.
