 Gaussian 16, Revision A.03,
 Gaussian 16:  EM64M-G16RevA.03 25-Dec-2016

 ---------------------
 # freq b3lyp/6-31g(d)
 ---------------------

 ---------
 good luck
 ---------
 Symbolic Z-matrix:
 Charge =  0 Multiplicity = 1

                         Standard orientation:
 ---------------------------------------------------------------------
 Center     Atomic      Atomic             Coordinates (Angstroms)
 Number     Number       Type             X           Y           Z
 ---------------------------------------------------------------------
      1          8           0        2.172346    2.348544   -0.599384
      2          6           0        1.375014    1.518189   -0.201331
      3          6           0        1.209848    0.159807   -0.880072
      4          6           0        1.974319   -0.943606   -0.104477
      5          6           0        3.494511   -0.737239   -0.051715
      6          6           0        4.218719   -1.870462    0.682173
      7          6           0       -0.290498   -0.176912   -1.075661
      8          6           0       -1.143138   -0.034968    0.205532
      9          6           0       -2.632710   -0.502444    0.035291
     10          6           0       -3.367910   -0.398942    1.390003
     11          6           0       -3.399879    0.335583   -1.008273
     12          6           0       -2.668007   -1.985339   -0.396216
     13          6           0       -0.988233    1.406735    0.735702
     14          6           0        0.486628    1.765539    1.009471
     15          1           0        1.681127    0.253965   -1.866161
     16          1           0        1.757578   -1.904186   -0.593963
     17          1           0        1.584200   -1.033597    0.918593
     18          1           0        3.880993   -0.654708   -1.076650
     19          1           0        3.724477    0.220931    0.430865
     20          1           0        5.301516   -1.703589    0.699902
     21          1           0        4.038717   -2.838370    0.197928
     22          1           0        3.878420   -1.953487    1.721991
     23          1           0       -0.693446    0.493772   -1.846579
     24          1           0       -0.358898   -1.191965   -1.482025
     25          1           0       -0.716179   -0.705866    0.967958
     26          1           0       -3.496118    0.637975    1.717012
     27          1           0       -4.368841   -0.839994    1.313592
     28          1           0       -2.827939   -0.937850    2.179039
     29          1           0       -2.951274    0.261808   -2.005095
     30          1           0       -3.440562    1.395645   -0.733922
     31          1           0       -4.434325   -0.019566   -1.089742
     32          1           0       -3.699876   -2.356103   -0.397302
     33          1           0       -2.090483   -2.614713    0.292841
     34          1           0       -2.269549   -2.136382   -1.404608
     35          1           0       -1.557935    1.553036    1.658688
     36          1           0       -1.393401    2.116380    0.001693
     37          1           0        0.858772    1.142117    1.836769
     38          1           0        0.602287    2.810751    1.311680
 ---------------------------------------------------------------------

 SCF Done:  E(RB3LYP) =  -585.079119710     A.U. after   13 cycles

 The electronic state is 1-A.
 Alpha  occ. eigenvalues --  -19.12962 -10.26340 -10.20158 -10.19241 -10.19110
 Alpha  occ. eigenvalues --  -10.18897 -10.18845 -10.18806 -10.18622 -10.17974
 Alpha  occ. eigenvalues --  -10.17475 -10.17464 -10.17445 -10.17396  -1.02812
 Alpha  occ. eigenvalues --   -0.84555  -0.80954  -0.78334  -0.74950  -0.71563
 Alpha  occ. eigenvalues --   -0.68626  -0.68578  -0.66635  -0.61434  -0.60072
 Alpha  occ. eigenvalues --   -0.58734  -0.53723  -0.51554  -0.47626  -0.46837
 Alpha  occ. eigenvalues --   -0.45073  -0.44544  -0.44281  -0.43986  -0.42793
 Alpha  occ. eigenvalues --   -0.42163  -0.41449  -0.40556  -0.39641  -0.38552
 Alpha  occ. eigenvalues --   -0.37711  -0.37427  -0.37194  -0.36894  -0.35866
 Alpha  occ. eigenvalues --   -0.34556  -0.34349  -0.34272  -0.33335  -0.32702
 Alpha  occ. eigenvalues --   -0.32208  -0.30867  -0.30303  -0.29956  -0.22977
 Alpha virt. eigenvalues --   -0.01046   0.07121   0.08427   0.09913   0.11189
 Alpha virt. eigenvalues --    0.11547   0.12148   0.12657   0.13442   0.13890
 Alpha virt. eigenvalues --    0.14999   0.15137   0.16018   0.16282   0.16714

 Mulliken charges:
               1
     1  O   -0.458396
     2  C    0.457113
     3  C   -0.159459
     4  C   -0.271712
     5  C   -0.253967
     6  C   -0.443610
     7  C   -0.298983
     8  C   -0.075204
     9  C    0.103529
    10  C   -0.452614
    11  C   -0.456660
    12  C   -0.452333
    13  C   -0.287893
    14  C   -0.353799
    15  H    0.144275
    16  H    0.135848
    17  H    0.133340
    18  H    0.139778
    19  H    0.150531
    20  H    0.146818
    21  H    0.140748
    22  H    0.139645
    23  H    0.140862
    24  H    0.138983
    25  H    0.116195
    26  H    0.144425
    27  H    0.140027
    28  H    0.137101
    29  H    0.144523
    30  H    0.143787
    31  H    0.140538
    32  H    0.139819
    33  H    0.137549
    34  H    0.144620
    35  H    0.143716
    36  H    0.143638
    37  H    0.155552
    38  H    0.161671
 Sum of Mulliken charges =  -0.00000

 Dipole moment (field-independent basis, Debye):
    X=             -1.9689    Y=             -2.0792    Z=              0.8789  Tot=              2.9953
 Quadrupole moment (field-independent basis, Debye-Ang):
   XX=            -93.4458   YY=            -95.9852   ZZ=            -88.6629
   XY=             -7.1682   XZ=              2.0616   YZ=              3.1466

  Exact polarizability: 156.245   2.962 131.303  -2.302   1.153 118.979
 Approx polarizability: 191.980   9.130 191.667  -5.653  -3.195 182.346

                      1                      2                      3
                      A                      A                      A
 Frequencies --     28.4372                52.9875                61.7761
 Red. masses --      2.6937                 2.9834                 2.5525
 Frc consts  --      0.0013                 0.0049                 0.0057
 IR Inten    --      0.1162                 1.5988                 0.0523

                      4                      5                      6
                      A                      A                      A
 Frequencies --     68.8788                87.9250               156.9355
 Red. masses --      2.0614                 4.0325                 2.7906
 Frc consts  --      0.0058                 0.0184                 0.0405
 IR Inten    --      0.4952                 2.0697                 1.2425

                      7                      8                      9
                      A                      A                      A
 Frequencies --    184.4292               189.0277               229.7812
 Red. masses --      2.0341                 2.5569                 1.7110
 Frc consts  --      0.0408                 0.0538                 0.0532
 IR Inten    --      0.0812                 0.1072                 0.1561

                     10                     11                     12
                      A                      A                      A
 Frequencies --    245.0697               249.6602               256.2473
 Red. masses --      1.6985                 1.2777                 1.3877
 Frc consts  --      0.0601                 0.0469                 0.0537
 IR Inten    --      0.1561                 0.0251                 0.1179

                     13                     14                     15
                      A                      A                      A
 Frequencies --    260.4365               270.5231               328.1141
 Red. masses --      1.7789                 1.0983                 2.3759
 Frc consts  --      0.0711                 0.0474                 0.1507
 IR Inten    --      0.1775                 0.0109                 0.3643

                     16                     17                     18
                      A                      A                      A
 Frequencies --    338.1504               347.1805               380.5922
 Red. masses --      2.2202                 2.4476                 2.4396
 Frc consts  --      0.1496                 0.1738                 0.2082
 IR Inten    --      0.2181                 0.0517                 1.5475

                     19                     20                     21
                      A                      A                      A
 Frequencies --    396.0647               442.5254               459.0412
 Red. masses --      2.2905                 2.6272                 3.6364
 Frc consts  --      0.2117                 0.3031                 0.4515
 IR Inten    --      0.7672                 0.3435                 2.8212

                     22                     23                     24
                      A                      A                      A
 Frequencies --    470.2420               506.5191               528.0801
 Red. masses --      2.6828                 2.2926                 2.6266
 Frc consts  --      0.3495                 0.3466                 0.4316
 IR Inten    --      2.8756                 3.1322                 1.7819

                     25                     26                     27
                      A                      A                      A
 Frequencies --    600.6976               691.0703               719.3124
 Red. masses --      3.2469                 3.2079                 2.6646
 Frc consts  --      0.6903                 0.9026                 0.8123
 IR Inten    --      0.2286                 0.5529                 3.0235

                     28                     29                     30
                      A                      A                      A
 Frequencies --    757.3318               790.4008               819.3425
 Red. masses --      1.2873                 2.3925                 1.8092
 Frc consts  --      0.4350                 0.8806                 0.7156
 IR Inten    --      3.1938                 3.0076                 2.8123

                     31                     32                     33
                      A                      A                      A
 Frequencies --    871.2199               880.3619               915.9035
 Red. masses --      1.9743                 1.5529                 1.8870
 Frc consts  --      0.8829                 0.7091                 0.9327
 IR Inten    --      2.0006                 0.7349                 0.7659

                     34                     35                     36
                      A                      A                      A
 Frequencies --    929.8148               940.5671               943.8198
 Red. masses --      1.9879                 1.8528                 1.7998
 Frc consts  --      1.0126                 0.9657                 0.9446
 IR Inten    --      2.8787                 0.0818                 1.3916

                     37                     38                     39
                      A                      A                      A
 Frequencies --    955.8471               969.5153               983.9889
 Red. masses --      1.9341                 1.2053                 1.9191
 Frc consts  --      1.0411                 0.6675                 1.0948
 IR Inten    --     12.0654                 0.1251                 2.8787

                     40                     41                     42
                      A                      A                      A
 Frequencies --    992.1591              1044.3406              1050.9120
 Red. masses --      2.2688                 1.8424                 1.5040
 Frc consts  --      1.3159                 1.1839                 0.9786
 IR Inten    --      2.7439                 1.6884                 1.0300

                     43                     44                     45
                      A                      A                      A
 Frequencies --   1056.3713              1061.6360              1073.0814
 Red. masses --      1.7706                 2.2058                 1.6362
 Frc consts  --      1.1642                 1.4648                 1.1101
 IR Inten    --      1.4580                 0.1867                 5.6275

                     46                     47                     48
                      A                      A                      A
 Frequencies --   1097.9401              1131.7244              1146.7380
 Red. masses --      2.1070                 2.0309                 2.1043
 Frc consts  --      1.4965                 1.5326                 1.6304
 IR Inten    --      1.4688                 1.7601                 4.6946

                     49                     50                     51
                      A                      A                      A
 Frequencies --   1175.4366              1193.6474              1225.9874
 Red. masses --      1.3551                 1.9798                 1.9674
 Frc consts  --      1.1031                 1.6620                 1.7422
 IR Inten    --      6.2386                13.1868                 2.7029

                     52                     53                     54
                      A                      A                      A
 Frequencies --   1251.5946              1265.0538              1267.1324
 Red. masses --      2.3870                 1.8622                 1.4891
 Frc consts  --      2.2031                 1.7559                 1.4087
 IR Inten    --     11.8370                21.4385                 8.4257

                     55                     56                     57
                      A                      A                      A
 Frequencies --   1282.4007              1296.0818              1299.3557
 Red. masses --      1.6601                 1.5487                 1.3676
 Frc consts  --      1.6085                 1.5328                 1.3604
 IR Inten    --      8.4815                 1.1093                 1.4028

                     58                     59                     60
                      A                      A                      A
 Frequencies --   1327.4989              1344.0541              1346.7592
 Red. masses --      1.4005                 1.1875                 1.3182
 Frc consts  --      1.4541                 1.2639                 1.4087
 IR Inten    --      1.5741                 0.0503                 2.8421

                     61                     62                     63
                      A                      A                      A
 Frequencies --   1372.3435              1375.0753              1378.6784
 Red. masses --      1.3558                 1.3012                 1.4094
 Frc consts  --      1.5044                 1.4496                 1.5784
 IR Inten    --      7.5186                 0.9046                 4.4715

                     64                     65                     66
                      A                      A                      A
 Frequencies --   1398.8000              1413.8282              1421.7632
 Red. masses --      1.4276                 1.4638                 1.4658
 Frc consts  --      1.6457                 1.7239                 1.7457
 IR Inten    --      1.0969                 0.2826                 2.9059

                     67                     68                     69
                      A                      A                      A
 Frequencies --   1430.3570              1431.1563              1441.7308
 Red. masses --      1.2327                 1.2303                 1.2449
 Frc consts  --      1.4859                 1.4847                 1.5245
 IR Inten    --      2.8843                 9.0159                 1.9283

                     70                     71                     72
                      A                      A                      A
 Frequencies --   1461.6374              1495.6402              1512.3045
 Red. masses --      1.2220                 1.0904                 1.0571
 Frc consts  --      1.5382                 1.4371                 1.4245
 IR Inten    --      6.2457                 7.5114                 1.4116

                     73                     74                     75
                      A                      A                      A
 Frequencies --   1515.6501              1517.5741              1518.3354
 Red. masses --      1.0674                 1.0764                 1.0447
 Frc consts  --      1.4447                 1.4605                 1.4190
 IR Inten    --      0.5852                 1.6150                 1.0177

                     76                     77                     78
                      A                      A                      A
 Frequencies --   1523.7017              1524.0642              1530.2626
 Red. masses --      1.0528                 1.0680                 1.0413
 Frc consts  --      1.4401                 1.4617                 1.4367
 IR Inten    --      0.5091                 1.3582                 6.0994

                     79                     80                     81
                      A                      A                      A
 Frequencies --   1531.7924              1539.8064              1540.1079
 Red. masses --      1.0869                 1.0780                 1.0522
 Frc consts  --      1.5026                 1.5059                 1.4704
 IR Inten    --      2.1748                 2.5260                 4.1453

                     82                     83                     84
                      A                      A                      A
 Frequencies --   1542.8744              1552.3915              1806.7299
 Red. masses --      1.0599                 1.0560                11.0491
 Frc consts  --      1.4865                 1.4994                21.2502
 IR Inten    --      2.4779                15.1651               178.8788

                     85                     86                     87
                      A                      A                      A
 Frequencies --   2996.8110              3021.9803              3025.4263
 Red. masses --      1.0812                 1.0645                 1.0658
 Frc consts  --      5.7212                 5.7280                 5.7478
 IR Inten    --     13.3848                14.5683                 8.5116

                     88                     89                     90
                      A                      A                      A
 Frequencies --   3037.4611              3039.4582              3039.6745
 Red. masses --      1.0574                 1.0448                 1.0473
 Frc consts  --      5.7479                 5.6871                 5.7012
 IR Inten    --      4.5990                21.8011                12.2941

                     91                     92                     93
                      A                      A                      A
 Frequencies --   3041.9547              3042.2218              3045.6363
 Red. masses --      1.0425                 1.0532                 1.0546
 Frc consts  --      5.6835                 5.7430                 5.7634
 IR Inten    --      6.0677                58.4470                30.5776

                     94                     95                     96
                      A                      A                      A
 Frequencies --   3051.4047              3052.8759              3065.4986
 Red. masses --      1.0672                 1.0658                 1.0881
 Frc consts  --      5.8544                 5.8525                 6.0247
 IR Inten    --     23.3217                18.1458                32.3761

                     97                     98                     99
                      A                      A                      A
 Frequencies --   3080.1617              3089.6677              3099.1077
 Red. masses --      1.1018                 1.0986                 1.0997
 Frc consts  --      6.1590                 6.1791                 6.2230
 IR Inten    --     16.8906                31.7359                17.8872

                    100                    101                    102
                      A                      A                      A
 Frequencies --   3099.7787              3105.0868              3106.5074
 Red. masses --      1.1010                 1.1011                 1.1031
 Frc consts  --      6.2330                 6.2549                 6.2720
 IR Inten    --      5.5920                43.9137                72.8694

                    103                    104                    105
                      A                      A                      A
 Frequencies --   3109.6584              3113.4216              3113.7655
 Red. masses --      1.1002                 1.1001                 1.0957
 Frc consts  --      6.2680                 6.2831                 6.2591
 IR Inten    --     77.2261                25.2370                33.5476

                    106                    107                    108
                      A                      A                      A
 Frequencies --   3117.9662              3121.8473              3122.3602
 Red. masses --      1.1020                 1.0992                 1.0988
 Frc consts  --      6.3120                 6.3117                 6.3115
 IR Inten    --      1.1374                75.2760                31.5880

 - Thermochemistry -
 -------------------
 Temperature   298.150 Kelvin.  Pressure   1.00000 Atm.
 Atom     1 has atomic number  8 and mass  15.99491

 Molecular mass:   196.18272 amu.
 Principal axes and moments of inertia in atomic units:
                           1         2         3
     Eigenvalues --  1723.135864779.480265551.51864
           X            0.99975  -0.02148   0.00539
           Y            0.02140   0.99966   0.01499
           Z           -0.00571  -0.01487   0.99987
 This molecule is an asymmetric top.
 Rotational symmetry number  1.
 Warning -- assumption of classical behavior for rotation
           may cause significant error
 Rotational temperatures (Kelvin)      0.05027     0.01812     0.01560
 Rotational constants (GHZ):           1.04736     0.37760     0.32509
 Zero-point vibrational energy     919653.5 (Joules/Mol)
                                  219.80247 (Kcal/Mol)
 Warning -- explicit consideration of  25 degrees of freedom as
           vibrations may cause significant error
 Vibrational temperatures:     40.91    76.24    88.88    99.10   126.50
          (Kelvin)            225.80   265.35   271.97   330.60   352.60
                              359.21   368.68   374.71   389.22   472.08
                              486.52   499.52   547.59   569.85   636.70
                              660.46   676.57   728.77   759.79   864.27
                              994.30  1034.93  1089.63  1137.21  1178.85
                             1253.49  1266.64  1317.78  1337.80  1353.27
                             1357.95  1375.25  1394.92  1415.74  1427.50
                             1502.57  1512.03  1519.88  1527.46  1543.92
                             1579.69  1628.30  1649.90  1691.19  1717.39
                             1763.92  1800.77  1820.13  1823.12  1845.09
                             1864.77  1869.48  1909.97  1933.79  1937.69
                             1974.50  1978.43  1983.61  2012.56  2034.18
                             2045.60  2057.96  2059.11  2074.33  2102.97
                             2151.89  2175.87  2180.68  2183.45  2184.55
                             2192.27  2192.79  2201.71  2203.91  2215.44
                             2215.87  2219.85  2233.55  2599.48  4311.74
                             4347.96  4352.91  4370.23  4373.10  4373.41
                             4376.69  4377.08  4381.99  4390.29  4392.41
                             4410.57  4431.67  4445.34  4458.92  4459.89
                             4467.53  4469.57  4474.10  4479.52  4480.01
                             4486.06  4491.64  4492.38

 Zero-point correction=                           0.350278 (Hartree/Particle)
 Thermal correction to Energy=                    0.366444
 Thermal correction to Enthalpy=                  0.367388
 Thermal correction to Gibbs Free Energy=         0.306735
 Sum of electronic and zero-point Energies=           -584.728842
 Sum of electronic and thermal Energies=              -584.712676
 Sum of electronic and thermal Enthalpies=            -584.711731
 Sum of electronic and thermal Free Energies=         -584.772385

                     E (Thermal)             CV                S
                      KCal/Mol        Cal/Mol-Kelvin    Cal/Mol-Kelvin
 Total                  229.947             61.707            127.655
 Electronic               0.000              0.000              0.000
 Translational            0.889              2.981             41.727
 Rotational               0.889              2.981             32.192
 Vibrational            228.170             55.745             53.737
 Vibration     1          0.593              1.984              5.936
 Vibration     2          0.596              1.976              4.703
 Vibration     3          0.597              1.973              4.400
 Vibration     4          0.598              1.969              4.185
 Vibration     5          0.601              1.958              3.706
 Vibration     6          0.621              1.895              2.586
 Vibration     7          0.631              1.861              2.283
 Vibration     8          0.633              1.855              2.237
 Vibration     9          0.652              1.796              1.881
 Vibration    10          0.660              1.771              1.766
 Vibration    11          0.662              1.763              1.733
 Vibration    12          0.666              1.752              1.687
 Vibration    13          0.668              1.745              1.659
 Vibration    14          0.674              1.727              1.593
 Vibration    15          0.711              1.619              1.269
 Vibration    16          0.718              1.599              1.221
 Vibration    17          0.725              1.581              1.179
 Vibration    18          0.750              1.512              1.037
 Vibration    19          0.763              1.479              0.977
 Vibration    20          0.802              1.377              0.819
 Vibration    21          0.817              1.341              0.769
 Vibration    22          0.827              1.316              0.737
 Vibration    23          0.862              1.236              0.642
 Vibration    24          0.883              1.188              0.592
 Vibration    25          0.959              1.030              0.448

 Normal termination of Gaussian 16 at Sat Feb 24 02:00:36 2024.
