 Gaussian 16, Revision A.03,
 Gaussian 16:  EM64M-G16RevA.03 25-Dec-2016

 ---------------------
 # freq b3lyp/6-31g(d)
 ---------------------

 ---------
 good luck
 ---------
 Symbolic Z-matrix:
 Charge =  0 Multiplicity = 1

                         Standard orientation:
 ---------------------------------------------------------------------
 Center     Atomic      Atomic             Coordinates (Angstroms)
 Number     Number       Type             X           Y           Z
 ---------------------------------------------------------------------
      1          8           0        2.010562    2.846296   -0.531958
      2          6           0        1.284163    1.952176   -0.137812
      3          6           0        1.386982    0.528769   -0.686351
      4          6           0        2.263553   -0.325038    0.268817
      5          6           0        2.697800   -1.676920   -0.315454
      6          6           0        3.634040   -2.448234    0.621422
      7          6           0       -0.018688   -0.059787   -0.966396
      8          6           0       -1.000574    0.061995    0.220752
      9          6           0       -2.375503   -0.660452   -0.011746
     10          6           0       -3.252784   -0.531589    1.253378
     11          6           0       -2.138457   -2.167369   -0.255663
     12          6           0       -3.151143   -0.080148   -1.212405
     13          6           0       -1.123749    1.553965    0.597576
     14          6           0        0.243188    2.173977    0.949630
     15          1           0        1.931614    0.613668   -1.634886
     16          1           0        3.164054    0.255850    0.511156
     17          1           0        1.742009   -0.493841    1.220689
     18          1           0        1.817277   -2.295303   -0.532679
     19          1           0        3.199499   -1.507118   -1.278211
     20          1           0        3.934626   -3.406399    0.183008
     21          1           0        3.149118   -2.659567    1.582467
     22          1           0        4.545861   -1.875670    0.829984
     23          1           0        0.092217   -1.102296   -1.279030
     24          1           0       -0.439549    0.473061   -1.829791
     25          1           0       -0.548683   -0.450748    1.085124
     26          1           0       -3.577640    0.498352    1.432727
     27          1           0       -4.157396   -1.142861    1.152316
     28          1           0       -2.717493   -0.877560    2.146907
     29          1           0       -1.613306   -2.361007   -1.196514
     30          1           0       -3.095779   -2.699708   -0.304650
     31          1           0       -1.552068   -2.614815    0.557052
     32          1           0       -4.109038   -0.601140   -1.329989
     33          1           0       -2.600087   -0.196254   -2.152150
     34          1           0       -3.373830    0.984650   -1.080839
     35          1           0       -1.560270    2.112166   -0.241698
     36          1           0       -1.797079    1.693509    1.449041
     37          1           0        0.620823    1.705568    1.871703
     38          1           0        0.167649    3.249014    1.139426
 ---------------------------------------------------------------------

 SCF Done:  E(RB3LYP) =  -585.078153817     A.U. after   13 cycles

 The electronic state is 1-A.
 Alpha  occ. eigenvalues --  -19.12859 -10.26273 -10.20170 -10.19237 -10.19092
 Alpha  occ. eigenvalues --  -10.18866 -10.18849 -10.18763 -10.18572 -10.18528
 Alpha  occ. eigenvalues --  -10.17715 -10.17504 -10.17486 -10.17450  -1.02739
 Alpha  occ. eigenvalues --   -0.84538  -0.80990  -0.78475  -0.74879  -0.71752
 Alpha  occ. eigenvalues --   -0.68649  -0.68596  -0.66726  -0.61897  -0.60592
 Alpha  occ. eigenvalues --   -0.57746  -0.53625  -0.51684  -0.47984  -0.46753
 Alpha  occ. eigenvalues --   -0.45458  -0.44546  -0.44240  -0.43976  -0.43073
 Alpha  occ. eigenvalues --   -0.42189  -0.41542  -0.40389  -0.39698  -0.38930
 Alpha  occ. eigenvalues --   -0.37715  -0.37519  -0.37285  -0.36449  -0.35873
 Alpha  occ. eigenvalues --   -0.34758  -0.34575  -0.33992  -0.33426  -0.32891
 Alpha  occ. eigenvalues --   -0.32407  -0.30910  -0.30269  -0.30081  -0.22895
 Alpha virt. eigenvalues --   -0.00946   0.06777   0.08995   0.09823   0.10486
 Alpha virt. eigenvalues --    0.11055   0.12288   0.12685   0.13077   0.13839
 Alpha virt. eigenvalues --    0.14968   0.15536   0.15969   0.16039   0.16578

 Mulliken charges:
               1
     1  O   -0.455738
     2  C    0.446690
     3  C   -0.156952
     4  C   -0.271959
     5  C   -0.253931
     6  C   -0.443654
     7  C   -0.303676
     8  C   -0.074621
     9  C    0.103417
    10  C   -0.452750
    11  C   -0.452846
    12  C   -0.456460
    13  C   -0.286808
    14  C   -0.354126
    15  H    0.143737
    16  H    0.149532
    17  H    0.133301
    18  H    0.137500
    19  H    0.138050
    20  H    0.145218
    21  H    0.141816
    22  H    0.146562
    23  H    0.144637
    24  H    0.141107
    25  H    0.114731
    26  H    0.144756
    27  H    0.139965
    28  H    0.136948
    29  H    0.144224
    30  H    0.140284
    31  H    0.137224
    32  H    0.140425
    33  H    0.144540
    34  H    0.143786
    35  H    0.142977
    36  H    0.143404
    37  H    0.157011
    38  H    0.161676
 Sum of Mulliken charges =  -0.00000

 Dipole moment (field-independent basis, Debye):
    X=             -1.7718    Y=             -2.4334    Z=              0.8853  Tot=              3.1376
 Quadrupole moment (field-independent basis, Debye-Ang):
   XX=            -92.4274   YY=            -98.3753   ZZ=            -88.8300
   XY=             -7.9870   XZ=              1.6995   YZ=              3.2324

  Exact polarizability: 149.510   2.117 139.691  -2.685   0.347 117.339
 Approx polarizability: 190.433   8.282 194.477  -5.444  -4.566 181.307

                      1                      2                      3
                      A                      A                      A
 Frequencies --     28.4592                43.5884                54.7245
 Red. masses --      2.6312                 2.7714                 4.6248
 Frc consts  --      0.0013                 0.0031                 0.0082
 IR Inten    --      0.0870                 0.0350                 2.8052

                      4                      5                      6
                      A                      A                      A
 Frequencies --     62.4154               119.7821               149.5936
 Red. masses --      1.7489                 3.4096                 2.4016
 Frc consts  --      0.0040                 0.0288                 0.0317
 IR Inten    --      0.0372                 0.8695                 0.1330

                      7                      8                      9
                      A                      A                      A
 Frequencies --    161.9402               194.5223               241.4113
 Red. masses --      2.6383                 1.7440                 1.5544
 Frc consts  --      0.0408                 0.0389                 0.0534
 IR Inten    --      1.0824                 0.0141                 0.0814

                     10                     11                     12
                      A                      A                      A
 Frequencies --    245.1398               250.2227               257.4986
 Red. masses --      1.4811                 1.2861                 1.3612
 Frc consts  --      0.0524                 0.0474                 0.0532
 IR Inten    --      0.0656                 0.0089                 0.2921

                     13                     14                     15
                      A                      A                      A
 Frequencies --    261.8499               271.8555               324.7154
 Red. masses --      2.3572                 1.2681                 2.6979
 Frc consts  --      0.0952                 0.0552                 0.1676
 IR Inten    --      0.1330                 0.1636                 0.2513

                     16                     17                     18
                      A                      A                      A
 Frequencies --    331.7275               342.3570               380.3776
 Red. masses --      2.5951                 1.9127                 2.8472
 Frc consts  --      0.1683                 0.1321                 0.2427
 IR Inten    --      0.7422                 0.0335                 3.0263

                     19                     20                     21
                      A                      A                      A
 Frequencies --    392.4212               436.6220               443.6380
 Red. masses --      2.1039                 3.0246                 2.6167
 Frc consts  --      0.1909                 0.3397                 0.3034
 IR Inten    --      0.1092                 2.5153                 0.1308

                     22                     23                     24
                      A                      A                      A
 Frequencies --    471.9423               513.7979               540.0834
 Red. masses --      2.4423                 2.5474                 2.8215
 Frc consts  --      0.3205                 0.3962                 0.4849
 IR Inten    --      0.7807                 3.1864                 5.0976

                     25                     26                     27
                      A                      A                      A
 Frequencies --    598.8683               692.9963               750.2117
 Red. masses --      2.8411                 3.5833                 1.5909
 Frc consts  --      0.6003                 1.0139                 0.5275
 IR Inten    --      0.4216                 0.9967                 1.4068

                     28                     29                     30
                      A                      A                      A
 Frequencies --    753.6715               783.9729               816.9863
 Red. masses --      2.1009                 2.2072                 1.8780
 Frc consts  --      0.7031                 0.7993                 0.7385
 IR Inten    --      3.1730                 3.5765                 3.3467

                     31                     32                     33
                      A                      A                      A
 Frequencies --    864.7017               873.6851               910.2691
 Red. masses --      1.5649                 2.2937                 1.7364
 Frc consts  --      0.6894                 1.0316                 0.8477
 IR Inten    --      2.4258                 1.6220                 1.2757

                     34                     35                     36
                      A                      A                      A
 Frequencies --    926.2715               940.3387               942.9856
 Red. masses --      2.2159                 1.8182                 1.8132
 Frc consts  --      1.1201                 0.9472                 0.9499
 IR Inten    --      0.9297                 0.1344                 0.9793

                     37                     38                     39
                      A                      A                      A
 Frequencies --    956.0280               969.0344               981.0703
 Red. masses --      1.6861                 1.2096                 2.3152
 Frc consts  --      0.9080                 0.6692                 1.3129
 IR Inten    --      7.2382                 0.4001                 7.7344

                     40                     41                     42
                      A                      A                      A
 Frequencies --    990.4688              1043.6807              1048.7301
 Red. masses --      1.7475                 2.1443                 1.6955
 Frc consts  --      1.0101                 1.3762                 1.0987
 IR Inten    --      3.9587                 0.6455                 0.4026

                     43                     44                     45
                      A                      A                      A
 Frequencies --   1052.6545              1065.9024              1085.0680
 Red. masses --      1.5242                 2.0680                 1.5915
 Frc consts  --      0.9951                 1.3843                 1.1040
 IR Inten    --      0.6669                 2.7548                 0.4634

                     46                     47                     48
                      A                      A                      A
 Frequencies --   1095.4257              1136.8767              1146.6373
 Red. masses --      2.1411                 2.1384                 1.7911
 Frc consts  --      1.5137                 1.6284                 1.3874
 IR Inten    --     10.2726                 0.9436                 4.0892

                     49                     50                     51
                      A                      A                      A
 Frequencies --   1178.3899              1187.9599              1229.0284
 Red. masses --      1.3813                 2.1762                 2.0169
 Frc consts  --      1.1301                 1.8095                 1.7950
 IR Inten    --     10.2499                15.6776                 1.6390

                     52                     53                     54
                      A                      A                      A
 Frequencies --   1252.3889              1264.9893              1273.8243
 Red. masses --      2.4467                 1.9216                 1.4824
 Frc consts  --      2.2610                 1.8117                 1.4172
 IR Inten    --     12.2794                22.1356                 5.1325

                     55                     56                     57
                      A                      A                      A
 Frequencies --   1282.5300              1288.8420              1306.5166
 Red. masses --      1.4867                 1.6570                 1.3902
 Frc consts  --      1.4408                 1.6217                 1.3982
 IR Inten    --     10.4713                 0.9034                 2.9337

                     58                     59                     60
                      A                      A                      A
 Frequencies --   1332.9206              1342.8287              1349.8665
 Red. masses --      1.3119                 1.3020                 1.2308
 Frc consts  --      1.3732                 1.3832                 1.3214
 IR Inten    --      2.6081                 0.9055                 0.2236

                     61                     62                     63
                      A                      A                      A
 Frequencies --   1366.1393              1373.0034              1382.2599
 Red. masses --      1.4408                 1.3826                 1.2539
 Frc consts  --      1.5843                 1.5357                 1.4115
 IR Inten    --      6.2273                 8.7968                 2.0592

                     64                     65                     66
                      A                      A                      A
 Frequencies --   1398.8236              1413.2856              1419.1598
 Red. masses --      1.4444                 1.4803                 1.4438
 Frc consts  --      1.6652                 1.7420                 1.7133
 IR Inten    --      2.1356                 0.2549                 0.9298

                     67                     68                     69
                      A                      A                      A
 Frequencies --   1429.6876              1430.6761              1441.1959
 Red. masses --      1.2306                 1.2328                 1.2376
 Frc consts  --      1.4820                 1.4868                 1.5145
 IR Inten    --      2.8711                 9.0433                 1.1001

                     70                     71                     72
                      A                      A                      A
 Frequencies --   1461.0919              1495.3415              1512.3347
 Red. masses --      1.2218                 1.0884                 1.0527
 Frc consts  --      1.5368                 1.4339                 1.4186
 IR Inten    --      6.3177                 9.3629                 0.5003

                     73                     74                     75
                      A                      A                      A
 Frequencies --   1515.9183              1518.1306              1519.0181
 Red. masses --      1.0699                 1.0510                 1.0677
 Frc consts  --      1.4486                 1.4272                 1.4516
 IR Inten    --      1.2945                 1.6219                 0.5011

                     76                     77                     78
                      A                      A                      A
 Frequencies --   1523.7986              1524.3483              1529.5589
 Red. masses --      1.0606                 1.0613                 1.0424
 Frc consts  --      1.4510                 1.4530                 1.4369
 IR Inten    --      0.5444                 1.1570                 6.6138

                     79                     80                     81
                      A                      A                      A
 Frequencies --   1533.3609              1539.3635              1540.0690
 Red. masses --      1.0852                 1.0566                 1.0730
 Frc consts  --      1.5033                 1.4752                 1.4995
 IR Inten    --      2.9143                 6.8419                 1.2821

                     82                     83                     84
                      A                      A                      A
 Frequencies --   1542.8856              1552.1516              1809.7336
 Red. masses --      1.0614                 1.0564                11.1694
 Frc consts  --      1.4887                 1.4995                21.5531
 IR Inten    --      1.9990                16.9006               195.0556

                     85                     86                     87
                      A                      A                      A
 Frequencies --   2993.6559              3020.6244              3029.6864
 Red. masses --      1.0813                 1.0691                 1.0589
 Frc consts  --      5.7093                 5.7474                 5.7269
 IR Inten    --     13.8265                 5.7259                 1.2029

                     88                     89                     90
                      A                      A                      A
 Frequencies --   3036.9657              3038.3837              3039.8094
 Red. masses --      1.0606                 1.0427                 1.0603
 Frc consts  --      5.7636                 5.6715                 5.7728
 IR Inten    --     25.7678                15.6660                 5.2431

                     91                     92                     93
                      A                      A                      A
 Frequencies --   3041.8007              3043.6562              3045.6026
 Red. masses --      1.0419                 1.0378                 1.0546
 Frc consts  --      5.6801                 5.6642                 5.7632
 IR Inten    --     17.4962                40.1954                44.7395

                     94                     95                     96
                      A                      A                      A
 Frequencies --   3051.5597              3054.0318              3062.1572
 Red. masses --      1.0530                 1.0856                 1.0905
 Frc consts  --      5.7774                 5.9656                 6.0244
 IR Inten    --     28.1651                13.3107                26.1362

                     97                     98                     99
                      A                      A                      A
 Frequencies --   3079.9266              3098.8370              3099.6268
 Red. masses --      1.1028                 1.0998                 1.1001
 Frc consts  --      6.1633                 6.2222                 6.2271
 IR Inten    --     40.3818                13.6084                 9.0693

                    100                    101                    102
                      A                      A                      A
 Frequencies --   3101.8673              3104.9874              3109.3305
 Red. masses --      1.0970                 1.1008                 1.1024
 Frc consts  --      6.2186                 6.2530                 6.2794
 IR Inten    --     11.9918                56.0426                27.3880

                    103                    104                    105
                      A                      A                      A
 Frequencies --   3110.2098              3112.5266              3114.5526
 Red. masses --      1.1000                 1.0943                 1.1020
 Frc consts  --      6.2695                 6.2461                 6.2981
 IR Inten    --    114.0202                27.5530                42.4165

                    106                    107                    108
                      A                      A                      A
 Frequencies --   3118.3421              3122.3287              3122.8890
 Red. masses --      1.1019                 1.0981                 1.0981
 Frc consts  --      6.3129                 6.3074                 6.3098
 IR Inten    --      2.4335                78.5984                21.2206

 - Thermochemistry -
 -------------------
 Temperature   298.150 Kelvin.  Pressure   1.00000 Atm.
 Atom     1 has atomic number  8 and mass  15.99491

 Molecular mass:   196.18272 amu.
 Principal axes and moments of inertia in atomic units:
                           1         2         3
     Eigenvalues --  2261.097773946.507545339.24947
           X            0.99898  -0.04484   0.00565
           Y            0.04479   0.99895   0.00955
           Z           -0.00607  -0.00929   0.99994
 This molecule is an asymmetric top.
 Rotational symmetry number  1.
 Warning -- assumption of classical behavior for rotation
           may cause significant error
 Rotational temperatures (Kelvin)      0.03831     0.02195     0.01622
 Rotational constants (GHZ):           0.79817     0.45730     0.33801
 Zero-point vibrational energy     919701.0 (Joules/Mol)
                                  219.81382 (Kcal/Mol)
 Warning -- explicit consideration of  25 degrees of freedom as
           vibrations may cause significant error
 Vibrational temperatures:     40.95    62.71    78.74    89.80   172.34
          (Kelvin)            215.23   233.00   279.87   347.34   352.70
                              360.01   370.48   376.74   391.14   467.19
                              477.28   492.58   547.28   564.61   628.20
                              638.30   679.02   739.24   777.06   861.64
                              997.07  1079.39  1084.37  1127.96  1175.46
                             1244.11  1257.04  1309.67  1332.70  1352.94
                             1356.75  1375.51  1394.22  1411.54  1425.06
                             1501.62  1508.89  1514.54  1533.60  1561.17
                             1576.07  1635.71  1649.76  1695.44  1709.21
                             1768.30  1801.91  1820.04  1832.75  1845.27
                             1854.36  1879.79  1917.78  1932.03  1942.16
                             1965.57  1975.45  1988.76  2012.60  2033.40
                             2041.85  2057.00  2058.42  2073.56  2102.19
                             2151.46  2175.91  2181.07  2184.25  2185.53
                             2192.41  2193.20  2200.69  2206.16  2214.80
                             2215.82  2219.87  2233.20  2603.80  4307.20
                             4346.00  4359.04  4369.52  4371.56  4373.61
                             4376.47  4379.14  4381.94  4390.51  4394.07
                             4405.76  4431.33  4458.54  4459.67  4462.90
                             4467.38  4473.63  4474.90  4478.23  4481.15
                             4486.60  4492.33  4493.14

 Zero-point correction=                           0.350296 (Hartree/Particle)
 Thermal correction to Energy=                    0.366488
 Thermal correction to Enthalpy=                  0.367432
 Thermal correction to Gibbs Free Energy=         0.306536
 Sum of electronic and zero-point Energies=           -584.727858
 Sum of electronic and thermal Energies=              -584.711666
 Sum of electronic and thermal Enthalpies=            -584.710721
 Sum of electronic and thermal Free Energies=         -584.771618

                     E (Thermal)             CV                S
                      KCal/Mol        Cal/Mol-Kelvin    Cal/Mol-Kelvin
 Total                  229.975             61.720            128.167
 Electronic               0.000              0.000              0.000
 Translational            0.889              2.981             41.727
 Rotational               0.889              2.981             32.233
 Vibrational            228.197             55.759             54.208
 Vibration     1          0.593              1.984              5.934
 Vibration     2          0.595              1.980              5.089
 Vibration     3          0.596              1.976              4.639
 Vibration     4          0.597              1.972              4.379
 Vibration     5          0.609              1.933              3.104
 Vibration     6          0.618              1.903              2.677
 Vibration     7          0.622              1.889              2.527
 Vibration     8          0.635              1.847              2.184
 Vibration     9          0.658              1.777              1.792
 Vibration    10          0.660              1.771              1.765
 Vibration    11          0.663              1.762              1.729
 Vibration    12          0.667              1.750              1.679
 Vibration    13          0.669              1.743              1.649
 Vibration    14          0.675              1.725              1.584
 Vibration    15          0.709              1.626              1.286
 Vibration    16          0.714              1.612              1.252
 Vibration    17          0.721              1.591              1.201
 Vibration    18          0.750              1.512              1.038
 Vibration    19          0.760              1.486              0.991
 Vibration    20          0.797              1.390              0.837
 Vibration    21          0.803              1.375              0.815
 Vibration    22          0.829              1.312              0.732
 Vibration    23          0.869              1.219              0.625
 Vibration    24          0.895              1.161              0.565
 Vibration    25          0.957              1.034              0.452

 Normal termination of Gaussian 16 at Sat Feb 24 02:05:39 2024.
