 Gaussian 16, Revision A.03,
 Gaussian 16:  EM64M-G16RevA.03 25-Dec-2016

 ---------------------
 # freq b3lyp/6-31g(d)
 ---------------------

 ---------
 good luck
 ---------
 Symbolic Z-matrix:
 Charge =  0 Multiplicity = 1

                         Standard orientation:
 ---------------------------------------------------------------------
 Center     Atomic      Atomic             Coordinates (Angstroms)
 Number     Number       Type             X           Y           Z
 ---------------------------------------------------------------------
      1          8           0       -2.332231    2.066532   -0.231972
      2          6           0       -1.245308    1.539480   -0.080448
      3          6           0       -1.034915    0.026736   -0.049515
      4          6           0       -2.288459   -0.764867   -0.452623
      5          6           0       -3.391208   -0.797424    0.615353
      6          6           0       -4.609255   -1.618356    0.180526
      7          6           0        0.197705   -0.306106   -0.927839
      8          6           0        1.531993    0.376190   -0.479879
      9          6           0        2.607818   -0.630460    0.059012
     10          6           0        3.866446    0.138649    0.515013
     11          6           0        3.032630   -1.581897   -1.080543
     12          6           0        2.083792   -1.467651    1.243934
     13          6           0        1.247451    1.554278    0.483537
     14          6           0        0.029681    2.371818    0.039312
     15          1           0       -0.778365   -0.228837    0.992173
     16          1           0       -2.694965   -0.339144   -1.379566
     17          1           0       -1.988576   -1.796762   -0.686166
     18          1           0       -3.698509    0.228689    0.841232
     19          1           0       -2.980651   -1.219287    1.544829
     20          1           0       -5.064704   -1.198939   -0.724843
     21          1           0       -4.334065   -2.658118   -0.038135
     22          1           0       -5.378101   -1.634930    0.961462
     23          1           0       -0.034798   -0.014787   -1.960579
     24          1           0        0.307821   -1.394327   -0.952072
     25          1           0        1.980365    0.821709   -1.380088
     26          1           0        3.677191    0.755272    1.399843
     27          1           0        4.242186    0.794868   -0.280447
     28          1           0        4.669258   -0.562888    0.771602
     29          1           0        3.805483   -2.277405   -0.731854
     30          1           0        3.447426   -1.020820   -1.927295
     31          1           0        2.198693   -2.184230   -1.456642
     32          1           0        2.863265   -2.153783    1.596526
     33          1           0        1.796157   -0.839728    2.095008
     34          1           0        1.216608   -2.077569    0.966454
     35          1           0        1.076524    1.185224    1.503218
     36          1           0        2.121231    2.210827    0.541921
     37          1           0       -0.172435    3.211660    0.714261
     38          1           0        0.210583    2.818709   -0.950102
 ---------------------------------------------------------------------

 SCF Done:  E(RB3LYP) =  -585.076429064     A.U. after   14 cycles

 The electronic state is 1-A.
 Alpha  occ. eigenvalues --  -19.13103 -10.26632 -10.20154 -10.19356 -10.19272
 Alpha  occ. eigenvalues --  -10.18962 -10.18807 -10.18797 -10.17644 -10.17587
 Alpha  occ. eigenvalues --  -10.17520 -10.17481 -10.17017 -10.16607  -1.03065
 Alpha  occ. eigenvalues --   -0.84529  -0.80691  -0.78259  -0.74555  -0.71270
 Alpha  occ. eigenvalues --   -0.68731  -0.68687  -0.66398  -0.61807  -0.59882
 Alpha  occ. eigenvalues --   -0.57637  -0.53358  -0.50609  -0.49101  -0.47168
 Alpha  occ. eigenvalues --   -0.45782  -0.45004  -0.44242  -0.43324  -0.42460
 Alpha  occ. eigenvalues --   -0.41475  -0.41087  -0.39738  -0.38805  -0.38422
 Alpha  occ. eigenvalues --   -0.37802  -0.37457  -0.36792  -0.36557  -0.35828
 Alpha  occ. eigenvalues --   -0.35158  -0.35110  -0.33535  -0.33004  -0.32225
 Alpha  occ. eigenvalues --   -0.31977  -0.30427  -0.30145  -0.29795  -0.23283
 Alpha virt. eigenvalues --   -0.00992   0.06553   0.09180   0.09911   0.10415
 Alpha virt. eigenvalues --    0.11450   0.12382   0.12868   0.13471   0.14581
 Alpha virt. eigenvalues --    0.15212   0.15303   0.16038   0.16566   0.17214

 Mulliken charges:
               1
     1  O   -0.459517
     2  C    0.458355
     3  C   -0.184015
     4  C   -0.244460
     5  C   -0.259888
     6  C   -0.443034
     7  C   -0.310157
     8  C   -0.059510
     9  C    0.091310
    10  C   -0.451705
    11  C   -0.450874
    12  C   -0.454479
    13  C   -0.293813
    14  C   -0.357769
    15  H    0.149934
    16  H    0.142039
    17  H    0.121220
    18  H    0.164861
    19  H    0.119128
    20  H    0.145483
    21  H    0.135394
    22  H    0.141003
    23  H    0.141539
    24  H    0.147604
    25  H    0.117532
    26  H    0.144755
    27  H    0.138017
    28  H    0.139805
    29  H    0.140292
    30  H    0.138745
    31  H    0.144249
    32  H    0.142357
    33  H    0.140900
    34  H    0.143373
    35  H    0.139422
    36  H    0.144947
    37  H    0.168830
    38  H    0.168127
 Sum of Mulliken charges =  -0.00000

 Dipole moment (field-independent basis, Debye):
    X=              2.7463    Y=             -1.0736    Z=              0.2641  Tot=              2.9605
 Quadrupole moment (field-independent basis, Debye-Ang):
   XX=            -96.6657   YY=            -92.1570   ZZ=            -88.4408
   XY=              6.0340   XZ=             -0.9212   YZ=              0.4627

  Exact polarizability: 159.843  -0.705 131.969   0.412   0.201 114.307
 Approx polarizability: 197.276  -7.131 187.289   1.868  -2.592 177.194

                      1                      2                      3
                      A                      A                      A
 Frequencies --     21.9006                50.8791                70.5151
 Red. masses --      3.5525                 3.4504                 2.2655
 Frc consts  --      0.0010                 0.0053                 0.0066
 IR Inten    --      1.5976                 1.2154                 0.1254

                      4                      5                      6
                      A                      A                      A
 Frequencies --     88.4641               111.7580               139.0438
 Red. masses --      2.1117                 2.5612                 3.1156
 Frc consts  --      0.0097                 0.0188                 0.0355
 IR Inten    --      0.7196                 0.8910                 0.6714

                      7                      8                      9
                      A                      A                      A
 Frequencies --    181.8472               227.9434               239.4714
 Red. masses --      2.1486                 1.1340                 1.7835
 Frc consts  --      0.0419                 0.0347                 0.0603
 IR Inten    --      0.5286                 0.0552                 0.2982

                     10                     11                     12
                      A                      A                      A
 Frequencies --    248.3852               260.1700               271.2734
 Red. masses --      1.1441                 1.5557                 1.8794
 Frc consts  --      0.0416                 0.0620                 0.0815
 IR Inten    --      0.1833                 1.1785                 0.5629

                     13                     14                     15
                      A                      A                      A
 Frequencies --    277.8435               283.6155               286.9736
 Red. masses --      2.4620                 1.9009                 2.2206
 Frc consts  --      0.1120                 0.0901                 0.1077
 IR Inten    --      0.6057                 0.5001                 1.2651

                     16                     17                     18
                      A                      A                      A
 Frequencies --    318.5671               333.9139               385.4726
 Red. masses --      1.6093                 2.4915                 2.7986
 Frc consts  --      0.0962                 0.1637                 0.2450
 IR Inten    --      0.2035                 0.2956                 0.1934

                     19                     20                     21
                      A                      A                      A
 Frequencies --    390.5171               432.0918               459.1547
 Red. masses --      2.1943                 3.0505                 2.5917
 Frc consts  --      0.1972                 0.3356                 0.3219
 IR Inten    --      0.1506                 5.2947                 0.5213

                     22                     23                     24
                      A                      A                      A
 Frequencies --    469.5259               543.9444               556.2385
 Red. masses --      2.7512                 3.0053                 2.6393
 Frc consts  --      0.3574                 0.5239                 0.4811
 IR Inten    --      1.8655                 3.2893                 4.5718

                     25                     26                     27
                      A                      A                      A
 Frequencies --    587.7467               628.0319               704.6059
 Red. masses --      2.6469                 2.5017                 2.8237
 Frc consts  --      0.5387                 0.5814                 0.8260
 IR Inten    --      1.6960                 1.7172                 3.2242

                     28                     29                     30
                      A                      A                      A
 Frequencies --    729.8621               770.5604               832.2574
 Red. masses --      1.8100                 1.6079                 2.5561
 Frc consts  --      0.5681                 0.5625                 1.0431
 IR Inten    --      1.5919                 1.2986                 1.4754

                     31                     32                     33
                      A                      A                      A
 Frequencies --    851.8109               881.6285               911.7701
 Red. masses --      1.7230                 1.5142                 1.7125
 Frc consts  --      0.7366                 0.6934                 0.8388
 IR Inten    --      3.1943                 1.2206                 0.9172

                     34                     35                     36
                      A                      A                      A
 Frequencies --    924.9969               941.2668               942.8534
 Red. masses --      1.9015                 1.7502                 1.7522
 Frc consts  --      0.9586                 0.9136                 0.9177
 IR Inten    --      2.9156                 0.5745                 0.8619

                     37                     38                     39
                      A                      A                      A
 Frequencies --    965.4662               971.2639               993.9127
 Red. masses --      2.3507                 1.2115                 2.0660
 Frc consts  --      1.2910                 0.6734                 1.2025
 IR Inten    --      9.5906                 0.0208                 5.2387

                     40                     41                     42
                      A                      A                      A
 Frequencies --   1026.3488              1046.9373              1050.2556
 Red. masses --      1.5489                 1.9375                 2.1477
 Frc consts  --      0.9613                 1.2512                 1.3958
 IR Inten    --      0.3018                 0.9756                 1.9881

                     43                     44                     45
                      A                      A                      A
 Frequencies --   1051.7653              1072.5057              1089.9407
 Red. masses --      1.6454                 1.5543                 2.4149
 Frc consts  --      1.0724                 1.0534                 1.6903
 IR Inten    --      0.5398                 1.2970                 8.3613

                     46                     47                     48
                      A                      A                      A
 Frequencies --   1111.6722              1129.1656              1139.5418
 Red. masses --      2.2437                 1.9389                 2.0177
 Frc consts  --      1.6337                 1.4565                 1.5437
 IR Inten    --      2.0226                25.1050                 0.9807

                     49                     50                     51
                      A                      A                      A
 Frequencies --   1176.2645              1188.5748              1205.0416
 Red. masses --      1.8064                 1.8767                 1.6333
 Frc consts  --      1.4726                 1.5621                 1.3974
 IR Inten    --     10.2951                17.3128                 3.8915

                     52                     53                     54
                      A                      A                      A
 Frequencies --   1248.0436              1251.8693              1261.3037
 Red. masses --      1.5314                 1.9397                 1.9705
 Frc consts  --      1.4054                 1.7911                 1.8470
 IR Inten    --      2.2704                15.2677                 4.6517

                     55                     56                     57
                      A                      A                      A
 Frequencies --   1273.1896              1284.2065              1302.5310
 Red. masses --      1.6711                 1.6442                 1.2933
 Frc consts  --      1.5961                 1.5977                 1.2928
 IR Inten    --      5.1382                 4.6464                 1.4991

                     58                     59                     60
                      A                      A                      A
 Frequencies --   1340.7068              1350.1954              1353.4160
 Red. masses --      1.1672                 1.3538                 1.3758
 Frc consts  --      1.2362                 1.4541                 1.4848
 IR Inten    --      1.8347                 3.1710                 0.5960

                     61                     62                     63
                      A                      A                      A
 Frequencies --   1364.7034              1374.8179              1378.8704
 Red. masses --      1.3755                 1.2871                 1.3127
 Frc consts  --      1.5094                 1.4334                 1.4705
 IR Inten    --      1.0915                 2.0536                 6.2160

                     64                     65                     66
                      A                      A                      A
 Frequencies --   1394.8529              1411.0793              1419.5997
 Red. masses --      1.5469                 1.5218                 1.5045
 Frc consts  --      1.7733                 1.7853                 1.7864
 IR Inten    --      6.7945                 6.0509                 0.6236

                     67                     68                     69
                      A                      A                      A
 Frequencies --   1430.0240              1431.8925              1440.3203
 Red. masses --      1.2364                 1.2364                 1.2430
 Frc consts  --      1.4897                 1.4936                 1.5193
 IR Inten    --      3.0522                 7.5730                 1.0176

                     70                     71                     72
                      A                      A                      A
 Frequencies --   1461.3305              1477.9677              1508.8122
 Red. masses --      1.2221                 1.0819                 1.0832
 Frc consts  --      1.5376                 1.3925                 1.4529
 IR Inten    --      8.1424                 8.5250                 1.2120

                     73                     74                     75
                      A                      A                      A
 Frequencies --   1513.3821              1517.4849              1517.9614
 Red. masses --      1.0539                 1.0460                 1.0504
 Frc consts  --      1.4221                 1.4191                 1.4260
 IR Inten    --      1.2847                 0.3995                 0.3490

                     76                     77                     78
                      A                      A                      A
 Frequencies --   1525.1970              1528.8008              1530.1835
 Red. masses --      1.0532                 1.0679                 1.0417
 Frc consts  --      1.4436                 1.4706                 1.4370
 IR Inten    --      0.3552                 0.2260                 5.8791

                     79                     80                     81
                      A                      A                      A
 Frequencies --   1532.7981              1539.4994              1542.1376
 Red. masses --      1.0799                 1.0822                 1.0587
 Frc consts  --      1.4948                 1.5113                 1.4835
 IR Inten    --      2.4167                 2.8989                 3.3424

                     82                     83                     84
                      A                      A                      A
 Frequencies --   1544.9884              1549.9751              1806.7566
 Red. masses --      1.0605                 1.0572                12.1005
 Frc consts  --      1.4915                 1.4965                23.2731
 IR Inten    --      8.2340                12.8712               175.7872

                     85                     86                     87
                      A                      A                      A
 Frequencies --   2994.6036              3005.8903              3022.3510
 Red. masses --      1.0801                 1.0835                 1.0652
 Frc consts  --      5.7066                 5.7683                 5.7329
 IR Inten    --      4.9518                18.2147                13.3193

                     88                     89                     90
                      A                      A                      A
 Frequencies --   3023.8703              3028.5009              3038.4063
 Red. masses --      1.0697                 1.0694                 1.0364
 Frc consts  --      5.7628                 5.7788                 5.6373
 IR Inten    --     32.5702                 7.7248                20.5307

                     91                     92                     93
                      A                      A                      A
 Frequencies --   3039.2752              3041.2577              3045.0466
 Red. masses --      1.0367                 1.0367                 1.0573
 Frc consts  --      5.6423                 5.6492                 5.7762
 IR Inten    --     36.7528                29.7649                 6.4270

                     94                     95                     96
                      A                      A                      A
 Frequencies --   3049.8873              3051.8162              3069.4917
 Red. masses --      1.0614                 1.0522                 1.0952
 Frc consts  --      5.8169                 5.7738                 6.0794
 IR Inten    --     46.7984                25.9966                26.5009

                     97                     98                     99
                      A                      A                      A
 Frequencies --   3091.7478              3092.4083              3098.1045
 Red. masses --      1.0935                 1.0972                 1.1004
 Frc consts  --      6.1588                 6.1823                 6.2227
 IR Inten    --     19.4095                 6.9337                14.5161

                    100                    101                    102
                      A                      A                      A
 Frequencies --   3098.7418              3100.0816              3104.8004
 Red. masses --      1.0958                 1.1013                 1.1013
 Frc consts  --      6.1993                 6.2358                 6.2550
 IR Inten    --     18.5335                 6.8688                34.1185

                    103                    104                    105
                      A                      A                      A
 Frequencies --   3108.4576              3110.6898              3113.2552
 Red. masses --      1.1004                 1.1020                 1.1019
 Frc consts  --      6.2648                 6.2826                 6.2927
 IR Inten    --     82.6088                45.2769                 6.5674

                    106                    107                    108
                      A                      A                      A
 Frequencies --   3116.2598              3118.7421              3119.6588
 Red. masses --      1.0979                 1.0985                 1.0998
 Frc consts  --      6.2820                 6.2951                 6.3063
 IR Inten    --     52.2757                63.8416                44.5932

 - Thermochemistry -
 -------------------
 Temperature   298.150 Kelvin.  Pressure   1.00000 Atm.
 Atom     1 has atomic number  8 and mass  15.99491

 Molecular mass:   196.18272 amu.
 Principal axes and moments of inertia in atomic units:
                           1         2         3
     Eigenvalues --  1656.894114847.693135820.81112
           X            0.99982   0.01892  -0.00055
           Y           -0.01892   0.99980   0.00701
           Z            0.00068  -0.00700   0.99998
 This molecule is an asymmetric top.
 Rotational symmetry number  1.
 Warning -- assumption of classical behavior for rotation
           may cause significant error
 Rotational temperatures (Kelvin)      0.05227     0.01787     0.01488
 Rotational constants (GHZ):           1.08923     0.37229     0.31005
 Zero-point vibrational energy     919137.6 (Joules/Mol)
                                  219.67915 (Kcal/Mol)
 Warning -- explicit consideration of  25 degrees of freedom as
           vibrations may cause significant error
 Vibrational temperatures:     31.51    73.20   101.46   127.28   160.79
          (Kelvin)            200.05   261.64   327.96   344.55   357.37
                              374.33   390.30   399.75   408.06   412.89
                              458.35   480.43   554.61   561.87   621.68
                              660.62   675.54   782.61   800.30   845.64
                              903.60  1013.77  1050.11  1108.66  1197.43
                             1225.57  1268.47  1311.83  1330.86  1354.27
                             1356.56  1389.09  1397.43  1430.02  1476.69
                             1506.31  1511.08  1513.26  1543.10  1568.18
                             1599.45  1624.62  1639.55  1692.38  1710.09
                             1733.79  1795.66  1801.16  1814.73  1831.84
                             1847.69  1874.05  1928.98  1942.63  1947.26
                             1963.50  1978.06  1983.89  2006.88  2030.23
                             2042.49  2057.49  2060.17  2072.30  2102.53
                             2126.47  2170.84  2177.42  2183.32  2184.01
                             2194.42  2199.60  2201.59  2205.35  2215.00
                             2218.79  2222.89  2230.07  2599.52  4308.57
                             4324.81  4348.49  4350.67  4357.34  4371.59
                             4372.84  4375.69  4381.14  4388.11  4390.88
                             4416.31  4448.34  4449.29  4457.48  4458.40
                             4460.33  4467.12  4472.38  4475.59  4479.28
                             4483.60  4487.17  4488.49

 Zero-point correction=                           0.350081 (Hartree/Particle)
 Thermal correction to Energy=                    0.366152
 Thermal correction to Enthalpy=                  0.367096
 Thermal correction to Gibbs Free Energy=         0.306783
 Sum of electronic and zero-point Energies=           -584.726348
 Sum of electronic and thermal Energies=              -584.710277
 Sum of electronic and thermal Enthalpies=            -584.709333
 Sum of electronic and thermal Free Energies=         -584.769646

                     E (Thermal)             CV                S
                      KCal/Mol        Cal/Mol-Kelvin    Cal/Mol-Kelvin
 Total                  229.764             61.781            126.939
 Electronic               0.000              0.000              0.000
 Translational            0.889              2.981             41.727
 Rotational               0.889              2.981             32.214
 Vibrational            227.986             55.819             52.999
 Vibration     1          0.593              1.985              6.454
 Vibration     2          0.595              1.977              4.783
 Vibration     3          0.598              1.968              4.139
 Vibration     4          0.601              1.957              3.694
 Vibration     5          0.607              1.940              3.238
 Vibration     6          0.615              1.914              2.817
 Vibration     7          0.630              1.864              2.309
 Vibration     8          0.651              1.798              1.895
 Vibration     9          0.657              1.780              1.807
 Vibration    10          0.662              1.765              1.742
 Vibration    11          0.668              1.746              1.661
 Vibration    12          0.675              1.726              1.588
 Vibration    13          0.679              1.714              1.547
 Vibration    14          0.682              1.704              1.512
 Vibration    15          0.684              1.698              1.492
 Vibration    16          0.705              1.638              1.317
 Vibration    17          0.715              1.608              1.241
 Vibration    18          0.754              1.501              1.018
 Vibration    19          0.758              1.490              0.998
 Vibration    20          0.793              1.400              0.852
 Vibration    21          0.817              1.341              0.769
 Vibration    22          0.827              1.318              0.739
 Vibration    23          0.899              1.153              0.557
 Vibration    24          0.912              1.126              0.531
 Vibration    25          0.945              1.058              0.471

 Normal termination of Gaussian 16 at Sat Feb 24 02:10:39 2024.
