 Gaussian 16, Revision A.03,
 Gaussian 16:  EM64M-G16RevA.03 25-Dec-2016

 ---------------------
 # freq b3lyp/6-31g(d)
 ---------------------

 ---------
 good luck
 ---------
 Symbolic Z-matrix:
 Charge =  0 Multiplicity = 1

                         Standard orientation:
 ---------------------------------------------------------------------
 Center     Atomic      Atomic             Coordinates (Angstroms)
 Number     Number       Type             X           Y           Z
 ---------------------------------------------------------------------
      1          8           0        3.321967   -0.436244   -1.290361
      2          6           0        2.346459   -0.330048   -0.587143
      3          6           0        1.517630   -1.397794    0.145631
      4          6           0        0.127749   -1.104746   -0.487128
      5          6           0       -1.047418   -1.725337    0.265822
      6          8           0       -2.208147   -1.616384   -0.542344
      7          6           0       -3.346795   -2.200029    0.055617
      8          6           0        0.138648    0.474036   -0.679430
      9          6           0       -1.035057    1.242752   -0.080363
     10          8           0       -0.815583    2.621940   -0.325141
     11          6           0       -1.878255    3.431586    0.127790
     12          6           0        1.541035    0.897473   -0.148174
     13          6           0        1.626899    0.719785    1.386416
     14          6           0        1.604299   -0.839374    1.588657
     15          1           0        1.863852   -2.425451    0.022003
     16          1           0        0.107814   -1.565757   -1.481672
     17          1           0       -1.223406   -1.244798    1.241318
     18          1           0       -0.827385   -2.788556    0.467094
     19          1           0       -3.198967   -3.275125    0.246375
     20          1           0       -4.178279   -2.074304   -0.642579
     21          1           0       -3.603585   -1.712276    1.010040
     22          1           0        0.118585    0.686013   -1.754432
     23          1           0       -1.971166    0.905071   -0.548577
     24          1           0       -1.135305    1.067611    1.004094
     25          1           0       -2.828188    3.174197   -0.368340
     26          1           0       -1.621367    4.466832   -0.112321
     27          1           0       -2.024860    3.344155    1.217264
     28          1           0        1.890732    1.857616   -0.524931
     29          1           0        2.562042    1.148003    1.762045
     30          1           0        0.811745    1.225649    1.910242
     31          1           0        2.526170   -1.185374    2.067838
     32          1           0        0.774510   -1.167819    2.221132
 ---------------------------------------------------------------------

 SCF Done:  E(RB3LYP) =  -655.624504054     A.U. after   14 cycles

 The electronic state is 1-A.
 Alpha  occ. eigenvalues --  -19.15663 -19.14723 -19.13931 -10.26558 -10.23895
 Alpha  occ. eigenvalues --  -10.23422 -10.22773 -10.22726 -10.20191 -10.19646
 Alpha  occ. eigenvalues --  -10.19505 -10.19455 -10.19088 -10.18797  -1.03950
 Alpha  occ. eigenvalues --   -1.03721  -1.03065  -0.87608  -0.77659  -0.76103
 Alpha  occ. eigenvalues --   -0.71472  -0.70867  -0.66685  -0.65079  -0.61120
 Alpha  occ. eigenvalues --   -0.59751  -0.53647  -0.53002  -0.51673  -0.49017
 Alpha  occ. eigenvalues --   -0.48465  -0.47434  -0.47065  -0.46693  -0.45227
 Alpha  occ. eigenvalues --   -0.43986  -0.42250  -0.41861  -0.41462  -0.39886
 Alpha  occ. eigenvalues --   -0.38516  -0.37292  -0.36514  -0.36314  -0.35685
 Alpha  occ. eigenvalues --   -0.34643  -0.34192  -0.32726  -0.31970  -0.31051
 Alpha  occ. eigenvalues --   -0.29944  -0.26687  -0.25168  -0.22697
 Alpha virt. eigenvalues --   -0.00790   0.07024   0.08390   0.08899   0.10012
 Alpha virt. eigenvalues --    0.12309   0.12935   0.13154   0.13731   0.14568
 Alpha virt. eigenvalues --    0.15355   0.15473   0.16093   0.16279   0.16817

 Mulliken charges:
               1
     1  O   -0.441566
     2  C    0.424496
     3  C   -0.178595
     4  C   -0.130117
     5  C   -0.017471
     6  O   -0.467562
     7  C   -0.193506
     8  C   -0.125341
     9  C   -0.027883
    10  O   -0.468306
    11  C   -0.189118
    12  C   -0.156058
    13  C   -0.293308
    14  C   -0.292596
    15  H    0.139455
    16  H    0.157855
    17  H    0.120672
    18  H    0.124962
    19  H    0.133490
    20  H    0.161905
    21  H    0.130011
    22  H    0.156269
    23  H    0.148545
    24  H    0.109131
    25  H    0.130666
    26  H    0.158742
    27  H    0.125903
    28  H    0.154907
    29  H    0.153349
    30  H    0.152783
    31  H    0.153780
    32  H    0.144508
 Sum of Mulliken charges =  -0.00000

 Dipole moment (field-independent basis, Debye):
    X=             -3.5192    Y=             -0.6500    Z=              3.0091  Tot=              4.6756
 Quadrupole moment (field-independent basis, Debye-Ang):
   XX=            -89.7997   YY=            -80.4360   ZZ=            -86.6539
   XY=              0.7722   XZ=              4.4213   YZ=             -0.7413

  Exact polarizability: 131.222  -1.638 122.202  -1.693   0.016 102.241
 Approx polarizability: 174.096  -1.789 160.257  -9.381  -0.303 159.802

                      1                      2                      3
                      A                      A                      A
 Frequencies --     31.1598                66.3768                72.7171
 Red. masses --      3.4775                 3.1482                 3.2516
 Frc consts  --      0.0020                 0.0082                 0.0101
 IR Inten    --      0.5481                 0.5484                 0.0474

                      4                      5                      6
                      A                      A                      A
 Frequencies --     93.8303               109.7282               119.3896
 Red. masses --      2.1731                 4.2225                 2.6269
 Frc consts  --      0.0113                 0.0300                 0.0221
 IR Inten    --      5.2353                 2.6924                 3.4335

                      7                      8                      9
                      A                      A                      A
 Frequencies --    143.3010               164.2610               226.8537
 Red. masses --      3.0999                 2.5389                 1.4175
 Frc consts  --      0.0375                 0.0404                 0.0430
 IR Inten    --      1.1087                 2.1416                 2.4656

                     10                     11                     12
                      A                      A                      A
 Frequencies --    240.3844               255.1204               279.5206
 Red. masses --      1.5728                 2.0664                 3.9906
 Frc consts  --      0.0535                 0.0792                 0.1837
 IR Inten    --      2.7821                 0.5936                 0.8806

                     13                     14                     15
                      A                      A                      A
 Frequencies --    292.9472               318.9245               368.9776
 Red. masses --      2.1914                 2.7591                 3.5811
 Frc consts  --      0.1108                 0.1653                 0.2873
 IR Inten    --      3.3059                 1.7043                 2.8455

                     16                     17                     18
                      A                      A                      A
 Frequencies --    394.0815               478.9922               510.6116
 Red. masses --      4.5354                 3.2278                 3.1002
 Frc consts  --      0.4150                 0.4363                 0.4762
 IR Inten    --      3.9110                 1.2163                 3.8042

                     19                     20                     21
                      A                      A                      A
 Frequencies --    558.5799               563.8506               646.9555
 Red. masses --      3.3869                 3.5262                 3.9712
 Frc consts  --      0.6226                 0.6605                 0.9793
 IR Inten    --      0.0865                 1.3812                 0.4909

                     22                     23                     24
                      A                      A                      A
 Frequencies --    742.6001               770.4020               780.6114
 Red. masses --      3.2929                 3.1641                 2.5637
 Frc consts  --      1.0699                 1.1065                 0.9204
 IR Inten    --      7.0332                 1.4469                 1.6444

                     25                     26                     27
                      A                      A                      A
 Frequencies --    833.9997               854.9998               874.2387
 Red. masses --      2.4480                 2.6131                 1.9732
 Frc consts  --      1.0032                 1.1255                 0.8885
 IR Inten    --      3.8713                 3.0903                 1.7440

                     28                     29                     30
                      A                      A                      A
 Frequencies --    888.3917               949.2418               980.6893
 Red. masses --      4.4430                 2.0439                 3.0934
 Frc consts  --      2.0660                 1.0851                 1.7528
 IR Inten    --      3.3052                 2.7398                 5.8683

                     31                     32                     33
                      A                      A                      A
 Frequencies --    991.3901              1000.2401              1020.3223
 Red. masses --      2.8251                 2.8044                 1.7676
 Frc consts  --      1.6360                 1.6531                 1.0842
 IR Inten    --     31.5874                13.2150                 0.8805

                     34                     35                     36
                      A                      A                      A
 Frequencies --   1038.0354              1066.1308              1092.4876
 Red. masses --      1.7009                 2.6407                 2.2039
 Frc consts  --      1.0798                 1.7685                 1.5498
 IR Inten    --      3.9153                 5.7023                 8.6205

                     37                     38                     39
                      A                      A                      A
 Frequencies --   1114.6285              1142.3127              1154.7174
 Red. masses --      1.8238                 2.1883                 3.1759
 Frc consts  --      1.3350                 1.6824                 2.4950
 IR Inten    --      2.5490                15.4815               105.3728

                     40                     41                     42
                      A                      A                      A
 Frequencies --   1159.3245              1168.8264              1169.8968
 Red. masses --      1.9706                 3.4061                 3.1597
 Frc consts  --      1.5605                 2.7417                 2.5480
 IR Inten    --     79.2336               130.6875                48.2498

                     43                     44                     45
                      A                      A                      A
 Frequencies --   1181.2156              1191.1102              1192.0078
 Red. masses --      1.3431                 1.2735                 1.2960
 Frc consts  --      1.1041                 1.0645                 1.0849
 IR Inten    --     13.3128                 1.5464                 0.8118

                     46                     47                     48
                      A                      A                      A
 Frequencies --   1205.4187              1232.2372              1238.0036
 Red. masses --      1.5900                 1.5763                 1.6798
 Frc consts  --      1.3612                 1.4102                 1.5169
 IR Inten    --      2.2626                37.4157                33.9669

                     49                     50                     51
                      A                      A                      A
 Frequencies --   1254.1850              1269.2185              1278.7206
 Red. masses --      1.2865                 1.3056                 1.2395
 Frc consts  --      1.1923                 1.2392                 1.1941
 IR Inten    --      0.6158                 7.3156                 5.5357

                     52                     53                     54
                      A                      A                      A
 Frequencies --   1279.0549              1298.5821              1324.5423
 Red. masses --      1.3077                 1.4471                 1.3237
 Frc consts  --      1.2605                 1.4378                 1.3683
 IR Inten    --      2.1056                 0.9275                 0.5120

                     55                     56                     57
                      A                      A                      A
 Frequencies --   1327.3624              1348.2764              1358.0097
 Red. masses --      1.3784                 1.4625                 1.3839
 Frc consts  --      1.4308                 1.5664                 1.5037
 IR Inten    --      1.0927                 2.2309                 1.6880

                     58                     59                     60
                      A                      A                      A
 Frequencies --   1385.5713              1392.9431              1441.0942
 Red. masses --      1.3204                 1.2886                 1.4087
 Frc consts  --      1.4936                 1.4731                 1.7237
 IR Inten    --      5.6850                12.1759                18.0173

                     61                     62                     63
                      A                      A                      A
 Frequencies --   1443.7460              1502.1669              1503.5016
 Red. masses --      1.3830                 1.1647                 1.1649
 Frc consts  --      1.6984                 1.5485                 1.5515
 IR Inten    --     25.9680                 3.4716                 2.5607

                     64                     65                     66
                      A                      A                      A
 Frequencies --   1514.3437              1515.0147              1522.4092
 Red. masses --      1.0485                 1.0481                 1.0789
 Frc consts  --      1.4167                 1.4174                 1.4734
 IR Inten    --      4.1964                 6.2763                 0.6626

                     67                     68                     69
                      A                      A                      A
 Frequencies --   1532.5373              1534.1169              1543.4605
 Red. masses --      1.0605                 1.0652                 1.0890
 Frc consts  --      1.4676                 1.4771                 1.5285
 IR Inten    --     12.3576                12.6254                 4.6160

                     70                     71                     72
                      A                      A                      A
 Frequencies --   1557.5161              1569.4477              1872.8715
 Red. masses --      1.0864                 1.0832                12.1401
 Frc consts  --      1.5528                 1.5720                25.0893
 IR Inten    --      1.2322                 1.6437               294.3210

                     73                     74                     75
                      A                      A                      A
 Frequencies --   2971.0908              2977.5521              2988.6482
 Red. masses --      1.0576                 1.0574                 1.0496
 Frc consts  --      5.5008                 5.5232                 5.5236
 IR Inten    --     16.8580                73.6119                38.8491

                     76                     77                     78
                      A                      A                      A
 Frequencies --   2991.3904              3010.5931              3027.7896
 Red. masses --      1.0425                 1.0928                 1.1038
 Frc consts  --      5.4964                 5.8360                 5.9622
 IR Inten    --     94.7393                53.2379                75.4906

                     79                     80                     81
                      A                      A                      A
 Frequencies --   3034.2827              3039.7692              3055.3120
 Red. masses --      1.1050                 1.0919                 1.0876
 Frc consts  --      5.9939                 5.9443                 5.9817
 IR Inten    --     62.3848                22.2564                11.3817

                     82                     83                     84
                      A                      A                      A
 Frequencies --   3070.5775              3073.7015              3081.4581
 Red. masses --      1.0630                 1.0858                 1.0626
 Frc consts  --      5.9050                 6.0438                 5.9450
 IR Inten    --     19.9727                43.5585                46.6192

                     85                     86                     87
                      A                      A                      A
 Frequencies --   3107.4306              3127.0979              3134.0708
 Red. masses --      1.1039                 1.1034                 1.0963
 Frc consts  --      6.2804                 6.3575                 6.3444
 IR Inten    --      5.4442                38.4118                36.5447

                     88                     89                     90
                      A                      A                      A
 Frequencies --   3136.2137              3138.6781              3166.1955
 Red. masses --      1.0888                 1.0967                 1.0893
 Frc consts  --      6.3098                 6.3652                 6.4338
 IR Inten    --     26.0142                29.8279                12.6783

 - Thermochemistry -
 -------------------
 Temperature   298.150 Kelvin.  Pressure   1.00000 Atm.
 Atom     1 has atomic number  8 and mass  15.99491

 Molecular mass:   198.12559 amu.
 Principal axes and moments of inertia in atomic units:
                           1         2         3
     Eigenvalues --  2471.099013090.393384646.33392
           X            0.99988   0.01199   0.01019
           Y           -0.01195   0.99992  -0.00371
           Z           -0.01024   0.00358   0.99994
 This molecule is an asymmetric top.
 Rotational symmetry number  1.
 Warning -- assumption of classical behavior for rotation
           may cause significant error
 Rotational temperatures (Kelvin)      0.03505     0.02803     0.01864
 Rotational constants (GHZ):           0.73034     0.58398     0.38842
 Zero-point vibrational energy     739714.4 (Joules/Mol)
                                  176.79598 (Kcal/Mol)
 Warning -- explicit consideration of  20 degrees of freedom as
           vibrations may cause significant error
 Vibrational temperatures:     44.83    95.50   104.62   135.00   157.87
          (Kelvin)            171.77   206.18   236.33   326.39   345.86
                              367.06   402.17   421.49   458.86   530.88
                              567.00   689.16   734.66   803.67   811.26
                              930.82  1068.44  1108.44  1123.13  1199.94
                             1230.15  1257.83  1278.20  1365.75  1410.99
                             1426.39  1439.12  1468.02  1493.50  1533.92
                             1571.85  1603.70  1643.53  1661.38  1668.01
                             1681.68  1683.22  1699.51  1713.74  1715.03
                             1734.33  1772.91  1781.21  1804.49  1826.12
                             1839.79  1840.27  1868.37  1905.72  1909.78
                             1939.87  1953.87  1993.53  2004.13  2073.41
                             2077.23  2161.28  2163.20  2178.80  2179.77
                             2190.41  2204.98  2207.25  2220.70  2240.92
                             2258.09  2694.64  4274.74  4284.03  4300.00
                             4303.94  4331.57  4356.31  4365.66  4373.55
                             4395.91  4417.88  4422.37  4433.53  4470.90
                             4499.20  4509.23  4512.31  4515.86  4555.45

 Zero-point correction=                           0.281742 (Hartree/Particle)
 Thermal correction to Energy=                    0.296049
 Thermal correction to Enthalpy=                  0.296993
 Thermal correction to Gibbs Free Energy=         0.239699
 Sum of electronic and zero-point Energies=           -655.342762
 Sum of electronic and thermal Energies=              -655.328455
 Sum of electronic and thermal Enthalpies=            -655.327511
 Sum of electronic and thermal Free Energies=         -655.384805

                     E (Thermal)             CV                S
                      KCal/Mol        Cal/Mol-Kelvin    Cal/Mol-Kelvin
 Total                  185.774             52.881            120.586
 Electronic               0.000              0.000              0.000
 Translational            0.889              2.981             41.756
 Rotational               0.889              2.981             31.940
 Vibrational            183.996             46.919             46.890
 Vibration     1          0.594              1.983              5.754
 Vibration     2          0.598              1.970              4.258
 Vibration     3          0.599              1.967              4.078
 Vibration     4          0.603              1.954              3.579
 Vibration     5          0.606              1.941              3.274
 Vibration     6          0.609              1.933              3.110
 Vibration     7          0.616              1.910              2.759
 Vibration     8          0.623              1.886              2.500
 Vibration     9          0.651              1.800              1.904
 Vibration    10          0.657              1.779              1.800
 Vibration    11          0.665              1.754              1.695
 Vibration    12          0.680              1.711              1.537
 Vibration    13          0.688              1.687              1.457
 Vibration    14          0.705              1.637              1.316
 Vibration    15          0.741              1.536              1.084
 Vibration    16          0.761              1.483              0.985
 Vibration    17          0.835              1.297              0.713
 Vibration    18          0.866              1.226              0.632
 Vibration    19          0.914              1.121              0.527
 Vibration    20          0.920              1.109              0.516

 Normal termination of Gaussian 16 at Sat Feb 24 01:32:57 2024.
