 Gaussian 16, Revision A.03,
 Gaussian 16:  EM64M-G16RevA.03 25-Dec-2016

 ---------------------
 # freq b3lyp/6-31g(d)
 ---------------------

 ---------
 good luck
 ---------
 Symbolic Z-matrix:
 Charge =  0 Multiplicity = 1

                         Standard orientation:
 ---------------------------------------------------------------------
 Center     Atomic      Atomic             Coordinates (Angstroms)
 Number     Number       Type             X           Y           Z
 ---------------------------------------------------------------------
      1          8           0       -3.322632   -0.435153   -1.289674
      2          6           0       -2.346605   -0.329222   -0.587095
      3          6           0       -1.540466    0.898063   -0.148742
      4          6           0       -0.138371    0.473581   -0.679890
      5          6           0        1.035754    1.241652   -0.080807
      6          8           0        0.817254    2.620954   -0.326103
      7          6           0        1.879575    3.430286    0.128242
      8          6           0       -0.128500   -1.105123   -0.486977
      9          6           0        1.046563   -1.725992    0.265863
     10          8           0        2.207098   -1.617738   -0.542697
     11          6           0        3.346130   -2.199853    0.056057
     12          6           0       -1.518448   -1.397097    0.146242
     13          6           0       -1.604922   -0.837820    1.589003
     14          6           0       -1.625987    0.721269    1.385969
     15          1           0       -1.889685    1.858216   -0.525914
     16          1           0       -0.118141    0.685188   -1.754967
     17          1           0        1.971735    0.903242   -0.548751
     18          1           0        1.135618    1.066641    1.003720
     19          1           0        2.828501    3.177671   -0.372207
     20          1           0        2.029666    3.336963    1.216737
     21          1           0        1.619877    4.466366   -0.105214
     22          1           0       -0.109035   -1.566475   -1.481375
     23          1           0        1.223023   -1.245180    1.241148
     24          1           0        0.826113   -2.789054    0.467479
     25          1           0        4.178567   -2.070449   -0.640365
     26          1           0        3.200631   -3.275763    0.244086
     27          1           0        3.599973   -1.713614    1.012054
     28          1           0       -1.865380   -2.424580    0.023140
     29          1           0       -2.527204   -1.182675    2.068227
     30          1           0       -0.775617   -1.166723    2.221859
     31          1           0       -0.810168    1.226582    1.909307
     32          1           0       -2.560575    1.150674    1.761639
 ---------------------------------------------------------------------

 SCF Done:  E(RB3LYP) =  -655.624504191     A.U. after   14 cycles

 The electronic state is 1-A.
 Alpha  occ. eigenvalues --  -19.15663 -19.14723 -19.13931 -10.26559 -10.23895
 Alpha  occ. eigenvalues --  -10.23422 -10.22773 -10.22726 -10.20191 -10.19646
 Alpha  occ. eigenvalues --  -10.19506 -10.19457 -10.19089 -10.18797  -1.03950
 Alpha  occ. eigenvalues --   -1.03719  -1.03063  -0.87608  -0.77660  -0.76103
 Alpha  occ. eigenvalues --   -0.71472  -0.70867  -0.66685  -0.65078  -0.61120
 Alpha  occ. eigenvalues --   -0.59752  -0.53647  -0.53001  -0.51672  -0.49017
 Alpha  occ. eigenvalues --   -0.48465  -0.47436  -0.47064  -0.46690  -0.45227
 Alpha  occ. eigenvalues --   -0.43986  -0.42252  -0.41862  -0.41461  -0.39886
 Alpha  occ. eigenvalues --   -0.38515  -0.37291  -0.36515  -0.36314  -0.35686
 Alpha  occ. eigenvalues --   -0.34642  -0.34191  -0.32726  -0.31970  -0.31051
 Alpha  occ. eigenvalues --   -0.29945  -0.26689  -0.25166  -0.22697
 Alpha virt. eigenvalues --   -0.00790   0.07023   0.08388   0.08897   0.10013
 Alpha virt. eigenvalues --    0.12310   0.12933   0.13154   0.13730   0.14570
 Alpha virt. eigenvalues --    0.15352   0.15472   0.16101   0.16282   0.16821

 Mulliken charges:
               1
     1  O   -0.441579
     2  C    0.424486
     3  C   -0.156040
     4  C   -0.125341
     5  C   -0.027883
     6  O   -0.468332
     7  C   -0.189104
     8  C   -0.130158
     9  C   -0.017472
    10  O   -0.467546
    11  C   -0.193505
    12  C   -0.178569
    13  C   -0.292597
    14  C   -0.293306
    15  H    0.154902
    16  H    0.156274
    17  H    0.148534
    18  H    0.109133
    19  H    0.130727
    20  H    0.125842
    21  H    0.158731
    22  H    0.157872
    23  H    0.120660
    24  H    0.124966
    25  H    0.161895
    26  H    0.133537
    27  H    0.129975
    28  H    0.139464
    29  H    0.153803
    30  H    0.144501
    31  H    0.152787
    32  H    0.153344
 Sum of Mulliken charges =  -0.00000

 Dipole moment (field-independent basis, Debye):
    X=              3.5190    Y=             -0.6487    Z=              3.0119  Tot=              4.6771
 Quadrupole moment (field-independent basis, Debye-Ang):
   XX=            -89.8041   YY=            -80.4435   ZZ=            -86.6524
   XY=             -0.7680   XZ=             -4.4129   YZ=             -0.7334

  Exact polarizability: 131.232   1.641 122.198   1.688   0.010 102.233
 Approx polarizability: 174.108   1.791 160.254   9.378  -0.311 159.802

                      1                      2                      3
                      A                      A                      A
 Frequencies --     31.2959                66.4730                72.7634
 Red. masses --      3.4768                 3.1482                 3.2542
 Frc consts  --      0.0020                 0.0082                 0.0102
 IR Inten    --      0.5491                 0.5513                 0.0455

                      4                      5                      6
                      A                      A                      A
 Frequencies --     93.7685               109.8290               119.5930
 Red. masses --      2.1724                 4.2664                 2.6069
 Frc consts  --      0.0113                 0.0303                 0.0220
 IR Inten    --      5.2059                 2.6774                 3.4789

                      7                      8                      9
                      A                      A                      A
 Frequencies --    143.4500               164.3944               226.8350
 Red. masses --      3.1107                 2.5384                 1.4182
 Frc consts  --      0.0377                 0.0404                 0.0430
 IR Inten    --      1.1162                 2.1270                 2.4754

                     10                     11                     12
                      A                      A                      A
 Frequencies --    240.4039               255.1390               279.4690
 Red. masses --      1.5724                 2.0646                 4.0018
 Frc consts  --      0.0535                 0.0792                 0.1841
 IR Inten    --      2.7648                 0.5926                 0.8998

                     13                     14                     15
                      A                      A                      A
 Frequencies --    293.1864               319.2941               368.9115
 Red. masses --      2.1964                 2.7431                 3.5796
 Frc consts  --      0.1112                 0.1648                 0.2870
 IR Inten    --      3.3359                 1.6912                 2.8369

                     16                     17                     18
                      A                      A                      A
 Frequencies --    394.0609               479.1002               510.6498
 Red. masses --      4.5344                 3.2310                 3.0999
 Frc consts  --      0.4149                 0.4370                 0.4763
 IR Inten    --      3.8979                 1.2208                 3.8069

                     19                     20                     21
                      A                      A                      A
 Frequencies --    558.5894               563.9165               646.9489
 Red. masses --      3.4147                 3.5002                 3.9694
 Frc consts  --      0.6278                 0.6558                 0.9789
 IR Inten    --      0.0872                 1.3825                 0.4899

                     22                     23                     24
                      A                      A                      A
 Frequencies --    742.6114               770.4061               780.6150
 Red. masses --      3.2920                 3.1616                 2.5654
 Frc consts  --      1.0696                 1.1056                 0.9210
 IR Inten    --      7.0298                 1.4479                 1.6393

                     25                     26                     27
                      A                      A                      A
 Frequencies --    834.0055               854.9125               874.2170
 Red. masses --      2.4475                 2.6127                 1.9737
 Frc consts  --      1.0030                 1.1251                 0.8887
 IR Inten    --      3.8807                 3.0830                 1.7423

                     28                     29                     30
                      A                      A                      A
 Frequencies --    888.3660               949.2014               980.6614
 Red. masses --      4.4434                 2.0438                 3.0957
 Frc consts  --      2.0661                 1.0849                 1.7541
 IR Inten    --      3.3058                 2.7499                 5.8485

                     31                     32                     33
                      A                      A                      A
 Frequencies --    991.3336              1000.1782              1020.3088
 Red. masses --      2.8302                 2.7977                 1.7681
 Frc consts  --      1.6388                 1.6489                 1.0845
 IR Inten    --     31.7418                13.0997                 0.8751

                     34                     35                     36
                      A                      A                      A
 Frequencies --   1038.0759              1066.0868              1092.4622
 Red. masses --      1.7006                 2.6401                 2.2050
 Frc consts  --      1.0797                 1.7679                 1.5505
 IR Inten    --      3.9163                 5.6987                 8.5804

                     37                     38                     39
                      A                      A                      A
 Frequencies --   1114.6359              1142.2838              1154.7226
 Red. masses --      1.8223                 2.1894                 3.1894
 Frc consts  --      1.3340                 1.6831                 2.5056
 IR Inten    --      2.5535                15.7648               105.2625

                     40                     41                     42
                      A                      A                      A
 Frequencies --   1159.2769              1168.8025              1169.9043
 Red. masses --      1.9702                 3.4169                 3.1551
 Frc consts  --      1.5600                 2.7502                 2.5442
 IR Inten    --     79.7389               131.6152                46.8664

                     43                     44                     45
                      A                      A                      A
 Frequencies --   1181.1911              1191.0887              1192.0405
 Red. masses --      1.3410                 1.2739                 1.2953
 Frc consts  --      1.1024                 1.0648                 1.0844
 IR Inten    --     13.1365                 1.4965                 0.8858

                     46                     47                     48
                      A                      A                      A
 Frequencies --   1205.3968              1232.2098              1237.9748
 Red. masses --      1.5894                 1.5753                 1.6793
 Frc consts  --      1.3606                 1.4093                 1.5164
 IR Inten    --      2.2644                37.4225                33.7719

                     49                     50                     51
                      A                      A                      A
 Frequencies --   1254.1716              1269.2094              1278.7005
 Red. masses --      1.2866                 1.3057                 1.2366
 Frc consts  --      1.1923                 1.2393                 1.1912
 IR Inten    --      0.6193                 7.3442                 5.5765

                     52                     53                     54
                      A                      A                      A
 Frequencies --   1279.0239              1298.5583              1324.5530
 Red. masses --      1.3113                 1.4470                 1.3235
 Frc consts  --      1.2639                 1.4376                 1.3680
 IR Inten    --      2.0561                 0.9305                 0.5119

                     55                     56                     57
                      A                      A                      A
 Frequencies --   1327.3450              1348.2742              1358.0025
 Red. masses --      1.3786                 1.4625                 1.3838
 Frc consts  --      1.4311                 1.5663                 1.5036
 IR Inten    --      1.0930                 2.2333                 1.6846

                     58                     59                     60
                      A                      A                      A
 Frequencies --   1385.5538              1392.9213              1441.0835
 Red. masses --      1.3206                 1.2886                 1.4088
 Frc consts  --      1.4937                 1.4731                 1.7238
 IR Inten    --      5.6741                12.1786                17.9749

                     61                     62                     63
                      A                      A                      A
 Frequencies --   1443.7313              1502.1725              1503.5087
 Red. masses --      1.3829                 1.1648                 1.1650
 Frc consts  --      1.6983                 1.5486                 1.5516
 IR Inten    --     26.0004                 3.5085                 2.5782

                     64                     65                     66
                      A                      A                      A
 Frequencies --   1514.3428              1515.0334              1522.4432
 Red. masses --      1.0485                 1.0481                 1.0789
 Frc consts  --      1.4166                 1.4174                 1.4734
 IR Inten    --      4.1414                 6.2547                 0.6715

                     67                     68                     69
                      A                      A                      A
 Frequencies --   1532.5411              1534.1044              1543.4572
 Red. masses --      1.0605                 1.0652                 1.0890
 Frc consts  --      1.4676                 1.4771                 1.5285
 IR Inten    --     12.3724                12.6458                 4.5880

                     70                     71                     72
                      A                      A                      A
 Frequencies --   1557.5138              1569.5255              1872.7286
 Red. masses --      1.0864                 1.0832                12.1395
 Frc consts  --      1.5528                 1.5721                25.0843
 IR Inten    --      1.2371                 1.6535               294.3179

                     73                     74                     75
                      A                      A                      A
 Frequencies --   2971.0968              2977.5659              2988.6909
 Red. masses --      1.0576                 1.0576                 1.0492
 Frc consts  --      5.5004                 5.5246                 5.5218
 IR Inten    --     16.7344                73.4783                37.8629

                     76                     77                     78
                      A                      A                      A
 Frequencies --   2991.2946              3010.5665              3027.9405
 Red. masses --      1.0426                 1.0929                 1.1038
 Frc consts  --      5.4966                 5.8362                 5.9628
 IR Inten    --     95.9435                53.2099                75.6182

                     79                     80                     81
                      A                      A                      A
 Frequencies --   3034.1636              3039.7765              3055.2894
 Red. masses --      1.1050                 1.0919                 1.0876
 Frc consts  --      5.9935                 5.9443                 5.9816
 IR Inten    --     62.4058                22.2360                11.3726

                     82                     83                     84
                      A                      A                      A
 Frequencies --   3070.5667              3073.6776              3081.4374
 Red. masses --      1.0630                 1.0858                 1.0626
 Frc consts  --      5.9051                 6.0437                 5.9449
 IR Inten    --     19.9506                43.5288                46.6329

                     85                     86                     87
                      A                      A                      A
 Frequencies --   3107.4280              3127.0674              3133.9710
 Red. masses --      1.1039                 1.1034                 1.0963
 Frc consts  --      6.2803                 6.3573                 6.3441
 IR Inten    --      5.4087                38.4645                36.4539

                     88                     89                     90
                      A                      A                      A
 Frequencies --   3136.2088              3138.4657              3166.2009
 Red. masses --      1.0888                 1.0967                 1.0893
 Frc consts  --      6.3098                 6.3644                 6.4338
 IR Inten    --     26.0860                29.7847                12.6820

 - Thermochemistry -
 -------------------
 Temperature   298.150 Kelvin.  Pressure   1.00000 Atm.
 Atom     1 has atomic number  8 and mass  15.99491

 Molecular mass:   198.12559 amu.
 Principal axes and moments of inertia in atomic units:
                           1         2         3
     Eigenvalues --  2470.354703090.572824645.76994
           X            0.99988  -0.01191  -0.01017
           Y            0.01188   0.99992  -0.00369
           Z            0.01022   0.00357   0.99994
 This molecule is an asymmetric top.
 Rotational symmetry number  1.
 Warning -- assumption of classical behavior for rotation
           may cause significant error
 Rotational temperatures (Kelvin)      0.03506     0.02803     0.01864
 Rotational constants (GHZ):           0.73056     0.58395     0.38847
 Zero-point vibrational energy     739716.5 (Joules/Mol)
                                  176.79650 (Kcal/Mol)
 Warning -- explicit consideration of  20 degrees of freedom as
           vibrations may cause significant error
 Vibrational temperatures:     45.03    95.64   104.69   134.91   158.02
          (Kelvin)            172.07   206.39   236.53   326.37   345.89
                              367.09   402.09   421.83   459.39   530.78
                              566.97   689.32   734.71   803.69   811.35
                              930.82  1068.45  1108.44  1123.13  1199.95
                             1230.03  1257.80  1278.16  1365.69  1410.95
                             1426.31  1439.03  1468.00  1493.56  1533.86
                             1571.81  1603.71  1643.49  1661.39  1667.94
                             1681.65  1683.23  1699.47  1713.71  1715.08
                             1734.30  1772.88  1781.17  1804.47  1826.11
                             1839.76  1840.23  1868.34  1905.74  1909.75
                             1939.87  1953.86  1993.50  2004.10  2073.40
                             2077.21  2161.29  2163.21  2178.80  2179.80
                             2190.46  2204.98  2207.23  2220.69  2240.91
                             2258.20  2694.44  4274.75  4284.05  4300.06
                             4303.81  4331.53  4356.53  4365.48  4373.56
                             4395.88  4417.86  4422.34  4433.50  4470.90
                             4499.15  4509.09  4512.30  4515.55  4555.46

 Zero-point correction=                           0.281743 (Hartree/Particle)
 Thermal correction to Energy=                    0.296048
 Thermal correction to Enthalpy=                  0.296992
 Thermal correction to Gibbs Free Energy=         0.239709
 Sum of electronic and zero-point Energies=           -655.342761
 Sum of electronic and thermal Energies=              -655.328457
 Sum of electronic and thermal Enthalpies=            -655.327512
 Sum of electronic and thermal Free Energies=         -655.384796

                     E (Thermal)             CV                S
                      KCal/Mol        Cal/Mol-Kelvin    Cal/Mol-Kelvin
 Total                  185.773             52.879            120.563
 Electronic               0.000              0.000              0.000
 Translational            0.889              2.981             41.756
 Rotational               0.889              2.981             31.939
 Vibrational            183.995             46.918             46.867
 Vibration     1          0.594              1.983              5.746
 Vibration     2          0.598              1.970              4.255
 Vibration     3          0.599              1.967              4.077
 Vibration     4          0.603              1.954              3.580
 Vibration     5          0.606              1.941              3.272
 Vibration     6          0.609              1.933              3.107
 Vibration     7          0.616              1.910              2.757
 Vibration     8          0.623              1.886              2.499
 Vibration     9          0.650              1.800              1.904
 Vibration    10          0.657              1.779              1.800
 Vibration    11          0.666              1.754              1.695
 Vibration    12          0.680              1.712              1.537
 Vibration    13          0.688              1.686              1.456
 Vibration    14          0.705              1.637              1.314
 Vibration    15          0.741              1.536              1.084
 Vibration    16          0.761              1.483              0.985
 Vibration    17          0.836              1.296              0.712
 Vibration    18          0.866              1.226              0.632
 Vibration    19          0.914              1.121              0.527
 Vibration    20          0.920              1.109              0.516

 Normal termination of Gaussian 16 at Sat Feb 24 01:40:58 2024.
