 Gaussian 16, Revision A.03,
 Gaussian 16:  EM64M-G16RevA.03 25-Dec-2016

 ---------------------
 # freq b3lyp/6-31g(d)
 ---------------------

 ---------
 good luck
 ---------
 Symbolic Z-matrix:
 Charge =  0 Multiplicity = 1

                         Standard orientation:
 ---------------------------------------------------------------------
 Center     Atomic      Atomic             Coordinates (Angstroms)
 Number     Number       Type             X           Y           Z
 ---------------------------------------------------------------------
      1          8           0        0.000006    3.274261   -1.027068
      2          6           0        0.000003    2.214299   -0.448531
      3          6           0        1.157765    1.328646    0.032533
      4          6           0        0.795373    0.021367   -0.731197
      5          6           0        1.482124   -1.238350   -0.208377
      6          8           0        2.880038   -1.025717   -0.273722
      7          6           0        3.625713   -2.143725    0.158349
      8          6           0       -0.795374    0.021369   -0.731197
      9          6           0       -1.482128   -1.238346   -0.208375
     10          8           0       -2.880040   -1.025714   -0.273724
     11          6           0       -3.625715   -2.143722    0.158349
     12          6           0       -1.157763    1.328649    0.032531
     13          6           0       -0.786122    1.217173    1.530416
     14          6           0        0.786121    1.217169    1.530418
     15          1           0        2.160428    1.700925   -0.172764
     16          1           0        1.139213    0.141144   -1.765346
     17          1           0        1.201507   -2.106346   -0.829498
     18          1           0        1.185107   -1.475746    0.826232
     19          1           0        3.425336   -3.032534   -0.461836
     20          1           0        4.682694   -1.879953    0.069303
     21          1           0        3.408289   -2.399519    1.208292
     22          1           0       -1.139213    0.141144   -1.765347
     23          1           0       -1.185112   -1.475739    0.826236
     24          1           0       -1.201508   -2.106344   -0.829491
     25          1           0       -3.425335   -3.032533   -0.461833
     26          1           0       -4.682697   -1.879951    0.069298
     27          1           0       -3.408294   -2.399511    1.208293
     28          1           0       -2.160424    1.700933   -0.172767
     29          1           0       -1.209419    0.325790    2.001728
     30          1           0       -1.177641    2.081325    2.077186
     31          1           0        1.177644    2.081319    2.077189
     32          1           0        1.209414    0.325784    2.001729
 ---------------------------------------------------------------------

 SCF Done:  E(RB3LYP) =  -655.623747185     A.U. after   14 cycles

 The electronic state is 1-A.
 Alpha  occ. eigenvalues --  -19.15390 -19.15390 -19.13720 -10.26321 -10.23804
 Alpha  occ. eigenvalues --  -10.23803 -10.23241 -10.23241 -10.20155 -10.20141
 Alpha  occ. eigenvalues --  -10.19012 -10.18996 -10.18834 -10.18831  -1.03819
 Alpha  occ. eigenvalues --   -1.03755  -1.03479  -0.87493  -0.77822  -0.76143
 Alpha  occ. eigenvalues --   -0.71359  -0.70867  -0.67212  -0.64825  -0.61334
 Alpha  occ. eigenvalues --   -0.59777  -0.53325  -0.53223  -0.51773  -0.49149
 Alpha  occ. eigenvalues --   -0.48217  -0.47770  -0.47453  -0.46923  -0.45292
 Alpha  occ. eigenvalues --   -0.44092  -0.42434  -0.42101  -0.41503  -0.39281
 Alpha  occ. eigenvalues --   -0.38362  -0.37127  -0.36583  -0.36182  -0.35821
 Alpha  occ. eigenvalues --   -0.34584  -0.34105  -0.32933  -0.32005  -0.31410
 Alpha  occ. eigenvalues --   -0.29791  -0.26554  -0.25793  -0.22508
 Alpha virt. eigenvalues --   -0.00660   0.06777   0.08397   0.08583   0.10569
 Alpha virt. eigenvalues --    0.11116   0.12767   0.12791   0.13992   0.14712
 Alpha virt. eigenvalues --    0.14936   0.15513   0.15823   0.15839   0.16904

 Mulliken charges:
               1
     1  O   -0.442460
     2  C    0.419956
     3  C   -0.155086
     4  C   -0.137095
     5  C   -0.018891
     6  O   -0.465492
     7  C   -0.191910
     8  C   -0.137095
     9  C   -0.018891
    10  O   -0.465492
    11  C   -0.191910
    12  C   -0.155086
    13  C   -0.294641
    14  C   -0.294641
    15  H    0.154314
    16  H    0.155369
    17  H    0.122357
    18  H    0.118407
    19  H    0.130746
    20  H    0.162088
    21  H    0.129391
    22  H    0.155369
    23  H    0.118406
    24  H    0.122357
    25  H    0.130746
    26  H    0.162088
    27  H    0.129391
    28  H    0.154314
    29  H    0.148336
    30  H    0.153360
    31  H    0.153360
    32  H    0.148336
 Sum of Mulliken charges =  -0.00000

 Dipole moment (field-independent basis, Debye):
    X=             -0.0000    Y=             -4.5675    Z=              2.0180  Tot=              4.9934
 Quadrupole moment (field-independent basis, Debye-Ang):
   XX=            -82.2310   YY=            -90.1212   ZZ=            -84.7471
   XY=             -0.0000   XZ=             -0.0000   YZ=              4.8012

  Exact polarizability: 130.010   0.000 123.885   0.000  -1.043 102.293
 Approx polarizability: 163.574   0.000 174.569  -0.000  -9.013 156.241

                      1                      2                      3
                      A                      A                      A
 Frequencies --     31.9287                65.9329                86.5087
 Red. masses --      3.4183                 3.2000                 3.7131
 Frc consts  --      0.0021                 0.0082                 0.0164
 IR Inten    --      0.5433                 0.0942                 0.3104

                      4                      5                      6
                      A                      A                      A
 Frequencies --     90.3223                94.8325               104.9434
 Red. masses --      3.0911                 2.0745                 2.2120
 Frc consts  --      0.0149                 0.0110                 0.0144
 IR Inten    --      0.0107                 0.2612                 7.2396

                      7                      8                      9
                      A                      A                      A
 Frequencies --    132.7391               158.8332               228.5120
 Red. masses --      5.7206                 3.1757                 1.3775
 Frc consts  --      0.0594                 0.0472                 0.0424
 IR Inten    --      4.6045                 0.9221                 5.0021

                     10                     11                     12
                      A                      A                      A
 Frequencies --    231.7670               275.1606               281.0254
 Red. masses --      1.2685                 2.6158                 4.3617
 Frc consts  --      0.0401                 0.1167                 0.2030
 IR Inten    --      0.0020                 2.5702                 0.4120

                     13                     14                     15
                      A                      A                      A
 Frequencies --    308.8007               315.4281               367.9790
 Red. masses --      2.2337                 2.5523                 3.4083
 Frc consts  --      0.1255                 0.1496                 0.2719
 IR Inten    --      1.5252                 2.1121                 0.2835

                     16                     17                     18
                      A                      A                      A
 Frequencies --    404.3446               483.5875               495.9416
 Red. masses --      4.7445                 3.2877                 3.0061
 Frc consts  --      0.4570                 0.4530                 0.4356
 IR Inten    --      7.4823                 2.1393                 2.1604

                     19                     20                     21
                      A                      A                      A
 Frequencies --    556.0602               612.0445               628.8780
 Red. masses --      2.9834                 4.1920                 4.2796
 Frc consts  --      0.5435                 0.9252                 0.9972
 IR Inten    --      3.4069                 1.4097                 0.8406

                     22                     23                     24
                      A                      A                      A
 Frequencies --    749.9882               766.8263               781.5992
 Red. masses --      3.4193                 2.8563                 2.6256
 Frc consts  --      1.1332                 0.9896                 0.9450
 IR Inten    --      5.4266                 1.7268                 1.0157

                     25                     26                     27
                      A                      A                      A
 Frequencies --    810.7728               854.2417               877.5865
 Red. masses --      2.3451                 1.9902                 2.5143
 Frc consts  --      0.9083                 0.8557                 1.1409
 IR Inten    --      0.7403                 3.0939                 2.8430

                     28                     29                     30
                      A                      A                      A
 Frequencies --    888.5358               948.2023               985.3214
 Red. masses --      4.4368                 1.8992                 3.5369
 Frc consts  --      2.0638                 1.0061                 2.0232
 IR Inten    --      2.9577                 6.0361                20.5830

                     31                     32                     33
                      A                      A                      A
 Frequencies --    998.5312               999.3305              1009.4473
 Red. masses --      1.8890                 3.7187                 2.3633
 Frc consts  --      1.1097                 2.1880                 1.4188
 IR Inten    --     11.2112                18.5112                 1.7367

                     34                     35                     36
                      A                      A                      A
 Frequencies --   1034.5234              1090.4216              1090.6594
 Red. masses --      1.6203                 2.1099                 2.3266
 Frc consts  --      1.0217                 1.4781                 1.6306
 IR Inten    --      0.0227                10.0569                 4.0568

                     37                     38                     39
                      A                      A                      A
 Frequencies --   1108.0411              1138.0598              1152.0368
 Red. masses --      1.9555                 2.6407                 1.3970
 Frc consts  --      1.4146                 2.0151                 1.0924
 IR Inten    --      1.9983                 2.3403                 7.4435

                     40                     41                     42
                      A                      A                      A
 Frequencies --   1156.9760              1167.2620              1171.0284
 Red. masses --      3.7328                 3.3153                 3.4965
 Frc consts  --      2.9440                 2.6614                 2.8250
 IR Inten    --    199.7638               104.5295                85.1329

                     43                     44                     45
                      A                      A                      A
 Frequencies --   1186.9193              1189.6514              1193.9859
 Red. masses --      1.3626                 1.2736                 1.3582
 Frc consts  --      1.1310                 1.0620                 1.1408
 IR Inten    --     12.2289                 0.1637                 8.1714

                     46                     47                     48
                      A                      A                      A
 Frequencies --   1203.9542              1232.9364              1238.2046
 Red. masses --      1.6336                 1.6662                 1.5324
 Frc consts  --      1.3952                 1.4923                 1.3843
 IR Inten    --      2.1132                 8.4569                56.5530

                     49                     50                     51
                      A                      A                      A
 Frequencies --   1249.7617              1268.1234              1273.2903
 Red. masses --      1.3733                 1.4623                 1.1828
 Frc consts  --      1.2638                 1.3855                 1.1298
 IR Inten    --      8.8072                 1.2564                 1.8329

                     52                     53                     54
                      A                      A                      A
 Frequencies --   1294.5723              1297.7296              1322.4210
 Red. masses --      1.1980                 1.4617                 1.4630
 Frc consts  --      1.1829                 1.4503                 1.5074
 IR Inten    --      5.9693                 0.4541                 2.0915

                     55                     56                     57
                      A                      A                      A
 Frequencies --   1330.2097              1346.0652              1361.5253
 Red. masses --      1.2878                 1.4206                 1.4016
 Frc consts  --      1.3426                 1.5165                 1.5309
 IR Inten    --      0.0002                 7.3486                 0.1098

                     58                     59                     60
                      A                      A                      A
 Frequencies --   1392.0597              1393.4089              1438.8411
 Red. masses --      1.3919                 1.2268                 1.4470
 Frc consts  --      1.5892                 1.4033                 1.7650
 IR Inten    --      3.0300                13.0776                23.1113

                     61                     62                     63
                      A                      A                      A
 Frequencies --   1446.6960              1501.7448              1503.2332
 Red. masses --      1.3440                 1.1588                 1.1654
 Frc consts  --      1.6573                 1.5398                 1.5516
 IR Inten    --     17.3202                 6.6584                 0.9675

                     64                     65                     66
                      A                      A                      A
 Frequencies --   1514.8114              1514.8894              1520.3875
 Red. masses --      1.0483                 1.0482                 1.0801
 Frc consts  --      1.4172                 1.4173                 1.4711
 IR Inten    --      0.0000                10.5772                 1.7587

                     67                     68                     69
                      A                      A                      A
 Frequencies --   1530.7359              1534.8756              1543.4468
 Red. masses --      1.0659                 1.0632                 1.0881
 Frc consts  --      1.4715                 1.4758                 1.5272
 IR Inten    --      5.1875                20.7800                 3.2340

                     70                     71                     72
                      A                      A                      A
 Frequencies --   1559.2684              1571.2723              1871.4854
 Red. masses --      1.0849                 1.0842                12.1339
 Frc consts  --      1.5541                 1.5772                25.0393
 IR Inten    --      0.1777                 3.5054               294.6197

                     73                     74                     75
                      A                      A                      A
 Frequencies --   2967.9178              2979.7231              2988.8431
 Red. masses --      1.0549                 1.0493                 1.0480
 Frc consts  --      5.4748                 5.4889                 5.5158
 IR Inten    --     67.3802                 5.5098                11.9757

                     76                     77                     78
                      A                      A                      A
 Frequencies --   2992.4393              2994.6547              3011.5644
 Red. masses --      1.0463                 1.0918                 1.1010
 Frc consts  --      5.5204                 5.7689                 5.8834
 IR Inten    --    162.8002                 1.5311                90.4367

                     79                     80                     81
                      A                      A                      A
 Frequencies --   3031.0451              3031.2623              3051.6401
 Red. masses --      1.1050                 1.1051                 1.0871
 Frc consts  --      5.9816                 5.9827                 5.9646
 IR Inten    --      0.3387               122.0332                10.1743

                     82                     83                     84
                      A                      A                      A
 Frequencies --   3070.4264              3071.2262              3081.6960
 Red. masses --      1.0855                 1.0629                 1.0619
 Frc consts  --      6.0293                 5.9067                 5.9415
 IR Inten    --     52.8617                21.4037                44.4341

                     85                     86                     87
                      A                      A                      A
 Frequencies --   3106.6813              3125.2402              3138.1347
 Red. masses --      1.1039                 1.1040                 1.0964
 Frc consts  --      6.2775                 6.3529                 6.3614
 IR Inten    --      2.8064                41.9910                61.7020

                     88                     89                     90
                      A                      A                      A
 Frequencies --   3138.2721              3165.4367              3166.6909
 Red. masses --      1.0964                 1.0882                 1.0902
 Frc consts  --      6.3618                 6.4243                 6.4413
 IR Inten    --      3.0247                20.7564                 6.4266

 - Thermochemistry -
 -------------------
 Temperature   298.150 Kelvin.  Pressure   1.00000 Atm.
 Atom     1 has atomic number  8 and mass  15.99491

 Molecular mass:   198.12559 amu.
 Principal axes and moments of inertia in atomic units:
                           1         2         3
     Eigenvalues --  2410.563413327.926214871.46954
           X            1.00000  -0.00000  -0.00000
           Y            0.00000   0.99990   0.01436
           Z            0.00000  -0.01436   0.99990
 This molecule is an asymmetric top.
 Rotational symmetry number  1.
 Warning -- assumption of classical behavior for rotation
           may cause significant error
 Rotational temperatures (Kelvin)      0.03593     0.02603     0.01778
 Rotational constants (GHZ):           0.74868     0.54230     0.37047
 Zero-point vibrational energy     739737.0 (Joules/Mol)
                                  176.80138 (Kcal/Mol)
 Warning -- explicit consideration of  20 degrees of freedom as
           vibrations may cause significant error
 Vibrational temperatures:     45.94    94.86   124.47   129.95   136.44
          (Kelvin)            150.99   190.98   228.53   328.78   333.46
                              395.89   404.33   444.30   453.83   529.44
                              581.76   695.77   713.55   800.05   880.60
                              904.82  1079.07  1103.29  1124.55  1166.52
                             1229.06  1262.65  1278.40  1364.25  1417.66
                             1436.66  1437.81  1452.37  1488.45  1568.87
                             1569.22  1594.22  1637.41  1657.52  1664.63
                             1679.43  1684.85  1707.71  1711.64  1717.88
                             1732.22  1773.92  1781.50  1798.13  1824.55
                             1831.98  1862.60  1867.14  1902.67  1913.88
                             1936.69  1958.93  2002.86  2004.80  2070.17
                             2081.47  2160.68  2162.82  2179.48  2179.59
                             2187.50  2202.39  2208.34  2220.68  2243.44
                             2260.71  2692.65  4270.17  4287.16  4300.28
                             4305.45  4308.64  4332.97  4361.00  4361.31
                             4390.63  4417.66  4418.81  4433.87  4469.82
                             4496.52  4515.08  4515.27  4554.36  4556.16

 Zero-point correction=                           0.281751 (Hartree/Particle)
 Thermal correction to Energy=                    0.296069
 Thermal correction to Enthalpy=                  0.297013
 Thermal correction to Gibbs Free Energy=         0.239565
 Sum of electronic and zero-point Energies=           -655.341996
 Sum of electronic and thermal Energies=              -655.327679
 Sum of electronic and thermal Enthalpies=            -655.326734
 Sum of electronic and thermal Free Energies=         -655.384182

                     E (Thermal)             CV                S
                      KCal/Mol        Cal/Mol-Kelvin    Cal/Mol-Kelvin
 Total                  185.786             52.820            120.909
 Electronic               0.000              0.000              0.000
 Translational            0.889              2.981             41.756
 Rotational               0.889              2.981             32.036
 Vibrational            184.008             46.858             47.117
 Vibration     1          0.594              1.983              5.706
 Vibration     2          0.597              1.971              4.271
 Vibration     3          0.601              1.959              3.738
 Vibration     4          0.602              1.956              3.653
 Vibration     5          0.603              1.953              3.558
 Vibration     6          0.605              1.945              3.360
 Vibration     7          0.613              1.921              2.906
 Vibration     8          0.621              1.893              2.564
 Vibration     9          0.651              1.798              1.891
 Vibration    10          0.653              1.792              1.865
 Vibration    11          0.677              1.719              1.564
 Vibration    12          0.681              1.709              1.527
 Vibration    13          0.698              1.657              1.369
 Vibration    14          0.703              1.644              1.334
 Vibration    15          0.741              1.538              1.088
 Vibration    16          0.770              1.461              0.947
 Vibration    17          0.840              1.286              0.700
 Vibration    18          0.852              1.259              0.668
 Vibration    19          0.912              1.126              0.532
 Vibration    20          0.971              1.006              0.429

 Normal termination of Gaussian 16 at Sat Feb 24 01:36:58 2024.
