 Gaussian 16, Revision A.03,
 Gaussian 16:  EM64M-G16RevA.03 25-Dec-2016

 ---------------------
 # freq b3lyp/6-31g(d)
 ---------------------

 ---------
 good luck
 ---------
 Symbolic Z-matrix:
 Charge =  0 Multiplicity = 1

                         Standard orientation:
 ---------------------------------------------------------------------
 Center     Atomic      Atomic             Coordinates (Angstroms)
 Number     Number       Type             X           Y           Z
 ---------------------------------------------------------------------
      1          8           0       -3.417382    0.967975   -0.462160
      2          6           0       -2.396825    0.437951   -0.064468
      3          6           0       -2.214662   -1.075386   -0.061913
      4          6           0       -0.834267   -1.508633   -0.598998
      5          6           0        0.352898   -0.764048    0.057917
      6          6           0        0.458004   -1.169253    1.545204
      7          6           0        1.663086   -1.149842   -0.675367
      8          6           0        2.880388   -0.315544   -0.242443
      9          6           0        2.613161    1.191045   -0.383415
     10          6           0        1.318090    1.611870    0.329596
     11          6           0        0.123067    0.765700   -0.140541
     12          6           0       -1.214942    1.242269    0.463211
     13          1           0       -2.334600   -1.418734    0.976102
     14          1           0       -3.029592   -1.520007   -0.641077
     15          1           0       -0.715214   -2.592427   -0.467871
     16          1           0       -0.806773   -1.323869   -1.681932
     17          1           0        0.619835   -2.251291    1.625005
     18          1           0       -0.447848   -0.934363    2.113008
     19          1           0        1.291304   -0.677112    2.054524
     20          1           0        1.509744   -1.012017   -1.756061
     21          1           0        1.865543   -2.219507   -0.526638
     22          1           0        3.751988   -0.600456   -0.845364
     23          1           0        3.143741   -0.545639    0.798560
     24          1           0        2.527034    1.441913   -1.450968
     25          1           0        3.463890    1.766441    0.002936
     26          1           0        1.440338    1.518723    1.417963
     27          1           0        1.111002    2.672596    0.135512
     28          1           0        0.045721    0.915982   -1.230508
     29          1           0       -1.396423    2.299331    0.242875
     30          1           0       -1.188627    1.139853    1.558509
 ---------------------------------------------------------------------

 SCF Done:  E(RB3LYP) =  -505.251986238     A.U. after   13 cycles

 The electronic state is 1-A.
 Alpha  occ. eigenvalues --  -19.12985 -10.26657 -10.20056 -10.19448 -10.18941
 Alpha  occ. eigenvalues --  -10.18853 -10.18639 -10.18337 -10.18289 -10.18262
 Alpha  occ. eigenvalues --  -10.18237 -10.17946  -1.02878  -0.85646  -0.79520
 Alpha  occ. eigenvalues --   -0.77189  -0.74182  -0.71043  -0.68458  -0.63462
 Alpha  occ. eigenvalues --   -0.60183  -0.58604  -0.53677  -0.51716  -0.47809
 Alpha  occ. eigenvalues --   -0.47192  -0.46372  -0.44551  -0.43168  -0.42974
 Alpha  occ. eigenvalues --   -0.42519  -0.41176  -0.40172  -0.38608  -0.37677
 Alpha  occ. eigenvalues --   -0.37141  -0.35802  -0.35539  -0.35185  -0.34213
 Alpha  occ. eigenvalues --   -0.33537  -0.32773  -0.31254  -0.29486  -0.29214
 Alpha  occ. eigenvalues --   -0.23222
 Alpha virt. eigenvalues --   -0.00951   0.07244   0.09022   0.10333   0.11266
 Alpha virt. eigenvalues --    0.12071   0.12693   0.14278   0.14750   0.15674
 Alpha virt. eigenvalues --    0.15980   0.16777   0.17003   0.17221   0.18080

 Mulliken charges:
               1
     1  O   -0.449942
     2  C    0.452326
     3  C   -0.355384
     4  C   -0.278764
     5  C    0.098150
     6  C   -0.472789
     7  C   -0.266642
     8  C   -0.266650
     9  C   -0.262051
    10  C   -0.265350
    11  C   -0.097776
    12  C   -0.355628
    13  H    0.158942
    14  H    0.163300
    15  H    0.135259
    16  H    0.138516
    17  H    0.143513
    18  H    0.142729
    19  H    0.151315
    20  H    0.126531
    21  H    0.127553
    22  H    0.133869
    23  H    0.133680
    24  H    0.130646
    25  H    0.132940
    26  H    0.130837
    27  H    0.134118
    28  H    0.123112
    29  H    0.159434
    30  H    0.154207
 Sum of Mulliken charges =  -0.00000

 Dipole moment (field-independent basis, Debye):
    X=              2.8770    Y=             -1.2808    Z=              0.8726  Tot=              3.2679
 Quadrupole moment (field-independent basis, Debye-Ang):
   XX=            -87.3997   YY=            -74.5507   ZZ=            -73.6686
   XY=              5.6296   XZ=             -3.1438   YZ=              0.8095

  Exact polarizability: 127.096  -0.540 109.972   1.859  -0.281  94.573
 Approx polarizability: 166.073  -6.624 156.231   7.167  -3.636 151.575

                      1                      2                      3
                      A                      A                      A
 Frequencies --     66.1515               130.5076               174.3927
 Red. masses --      5.4191                 2.5050                 1.4711
 Frc consts  --      0.0140                 0.0251                 0.0264
 IR Inten    --      3.2670                 0.7703                 0.0777

                      4                      5                      6
                      A                      A                      A
 Frequencies --    199.6195               244.7042               259.4456
 Red. masses --      2.6277                 2.9179                 1.4891
 Frc consts  --      0.0617                 0.1029                 0.0591
 IR Inten    --      0.5757                 0.2481                 0.3220

                      7                      8                      9
                      A                      A                      A
 Frequencies --    293.4907               326.7246               341.9745
 Red. masses --      2.9350                 2.4297                 1.7933
 Frc consts  --      0.1490                 0.1528                 0.1236
 IR Inten    --      0.5290                 0.3255                 0.3293

                     10                     11                     12
                      A                      A                      A
 Frequencies --    380.4974               408.8532               424.7900
 Red. masses --      3.2178                 3.2164                 2.1938
 Frc consts  --      0.2745                 0.3168                 0.2332
 IR Inten    --      0.1495                 2.9749                 0.2116

                     13                     14                     15
                      A                      A                      A
 Frequencies --    456.1303               493.0472               499.6904
 Red. masses --      2.2427                 2.7475                 2.4514
 Frc consts  --      0.2749                 0.3935                 0.3606
 IR Inten    --      1.6938                 4.5826                 1.6672

                     16                     17                     18
                      A                      A                      A
 Frequencies --    528.1888               564.9624               677.6395
 Red. masses --      2.4916                 2.0119                 3.2019
 Frc consts  --      0.4096                 0.3783                 0.8663
 IR Inten    --      1.5042                 2.9153                 1.4432

                     19                     20                     21
                      A                      A                      A
 Frequencies --    689.5239               766.7278               804.1588
 Red. masses --      3.2331                 1.9547                 2.2247
 Frc consts  --      0.9057                 0.6770                 0.8476
 IR Inten    --      0.7450                 4.9711                 0.6402

                     22                     23                     24
                      A                      A                      A
 Frequencies --    827.9327               856.2398               872.4964
 Red. masses --      1.7947                 2.5873                 1.5756
 Frc consts  --      0.7248                 1.1176                 0.7067
 IR Inten    --      0.6536                 0.6840                 3.4466

                     25                     26                     27
                      A                      A                      A
 Frequencies --    902.4935               929.5235               955.6451
 Red. masses --      2.1515                 1.6477                 1.8808
 Frc consts  --      1.0325                 0.8388                 1.0120
 IR Inten    --      0.4598                 0.1117                 0.2652

                     28                     29                     30
                      A                      A                      A
 Frequencies --    971.2941               983.1955               992.4689
 Red. masses --      1.7501                 1.7579                 1.8843
 Frc consts  --      0.9728                 1.0012                 1.0935
 IR Inten    --      1.5485                 4.3303                 0.7750

                     31                     32                     33
                      A                      A                      A
 Frequencies --   1018.2585              1031.2359              1062.5168
 Red. masses --      1.9307                 1.5079                 1.9546
 Frc consts  --      1.1795                 0.9448                 1.3001
 IR Inten    --      3.0458                 3.2294                 1.9914

                     34                     35                     36
                      A                      A                      A
 Frequencies --   1087.1105              1097.2706              1144.9342
 Red. masses --      1.8947                 2.2454                 1.5666
 Frc consts  --      1.3193                 1.5928                 1.2100
 IR Inten    --      1.2859                 0.6488                15.7107

                     37                     38                     39
                      A                      A                      A
 Frequencies --   1156.9354              1177.9751              1187.0747
 Red. masses --      1.9821                 1.8441                 1.7242
 Frc consts  --      1.5631                 1.5077                 1.4315
 IR Inten    --      0.3514                 5.1104                16.4810

                     40                     41                     42
                      A                      A                      A
 Frequencies --   1193.4438              1209.3481              1255.1401
 Red. masses --      1.2754                 2.2483                 1.5151
 Frc consts  --      1.0702                 1.9373                 1.4063
 IR Inten    --      0.7024                13.6153                 1.7675

                     43                     44                     45
                      A                      A                      A
 Frequencies --   1265.0952              1283.3883              1305.5717
 Red. masses --      1.8330                 1.3870                 1.3186
 Frc consts  --      1.7284                 1.3460                 1.3243
 IR Inten    --     22.5795                 2.8032                 0.2858

                     46                     47                     48
                      A                      A                      A
 Frequencies --   1313.9869              1331.9092              1358.0073
 Red. masses --      1.4953                 1.5946                 1.3441
 Frc consts  --      1.5211                 1.6667                 1.4605
 IR Inten    --      3.1378                 1.4147                 4.4571

                     49                     50                     51
                      A                      A                      A
 Frequencies --   1372.7142              1382.8484              1384.6263
 Red. masses --      1.3656                 1.4493                 1.4874
 Frc consts  --      1.5161                 1.6329                 1.6802
 IR Inten    --      0.6485                 2.9967                 5.8094

                     52                     53                     54
                      A                      A                      A
 Frequencies --   1390.5019              1401.8048              1405.5873
 Red. masses --      1.4616                 1.4122                 1.3653
 Frc consts  --      1.6650                 1.6350                 1.5892
 IR Inten    --      2.3871                 3.2625                 1.0794

                     55                     56                     57
                      A                      A                      A
 Frequencies --   1413.4456              1444.6883              1490.7488
 Red. masses --      1.4863                 1.2559                 1.0876
 Frc consts  --      1.7494                 1.5444                 1.4240
 IR Inten    --      0.2781                 7.9183                 8.0403

                     58                     59                     60
                      A                      A                      A
 Frequencies --   1499.6583              1509.9046              1517.3683
 Red. masses --      1.0807                 1.0846                 1.0827
 Frc consts  --      1.4320                 1.4569                 1.4688
 IR Inten    --      5.0141                 0.4467                 3.9387

                     61                     62                     63
                      A                      A                      A
 Frequencies --   1519.0212              1524.8028              1533.7999
 Red. masses --      1.0833                 1.0897                 1.0783
 Frc consts  --      1.4727                 1.4927                 1.4946
 IR Inten    --      8.7205                 6.1071                 0.4709

                     64                     65                     66
                      A                      A                      A
 Frequencies --   1539.1873              1547.5145              1814.8704
 Red. masses --      1.0775                 1.0596                11.0883
 Frc consts  --      1.5040                 1.4951                21.5183
 IR Inten    --      2.9929                 3.7502               214.5679

                     67                     68                     69
                      A                      A                      A
 Frequencies --   2980.9572              3017.1438              3023.2140
 Red. masses --      1.0819                 1.0624                 1.0682
 Frc consts  --      5.6642                 5.6978                 5.7525
 IR Inten    --     11.8262                14.6287                20.7027

                     70                     71                     72
                      A                      A                      A
 Frequencies --   3028.8494              3030.1115              3032.5875
 Red. masses --      1.0650                 1.0635                 1.0630
 Frc consts  --      5.7565                 5.7530                 5.7598
 IR Inten    --      1.2458                28.0297                10.0944

                     73                     74                     75
                      A                      A                      A
 Frequencies --   3035.1654              3037.7465              3054.8943
 Red. masses --      1.0653                 1.0651                 1.0515
 Frc consts  --      5.7819                 5.7910                 5.7814
 IR Inten    --     57.9368                12.8518                 6.1907

                     76                     77                     78
                      A                      A                      A
 Frequencies --   3059.1892              3066.9591              3070.1702
 Red. masses --      1.0888                 1.0981                 1.0997
 Frc consts  --      6.0038                 6.0855                 6.1073
 IR Inten    --     34.3907                35.8623                56.1721

                     79                     80                     81
                      A                      A                      A
 Frequencies --   3071.7648              3080.9545              3105.1363
 Red. masses --      1.0981                 1.1037                 1.0954
 Frc consts  --      6.1045                 6.1725                 6.2229
 IR Inten    --     47.0332                94.8613                27.3489

                     82                     83                     84
                      A                      A                      A
 Frequencies --   3113.3562              3116.0395              3133.9069
 Red. masses --      1.0951                 1.0969                 1.0996
 Frc consts  --      6.2538                 6.2750                 6.3628
 IR Inten    --     20.7713                31.3928                30.9456

 - Thermochemistry -
 -------------------
 Temperature   298.150 Kelvin.  Pressure   1.00000 Atm.
 Atom     1 has atomic number  8 and mass  15.99491

 Molecular mass:   166.13577 amu.
 Principal axes and moments of inertia in atomic units:
                           1         2         3
     Eigenvalues --  1064.209062609.158203121.12788
           X            0.99974   0.02186  -0.00645
           Y           -0.02183   0.99975   0.00380
           Z            0.00653  -0.00366   0.99997
 This molecule is an asymmetric top.
 Rotational symmetry number  1.
 Warning -- assumption of classical behavior for rotation
           may cause significant error
 Rotational temperatures (Kelvin)      0.08139     0.03320     0.02775
 Rotational constants (GHZ):           1.69585     0.69169     0.57823
 Zero-point vibrational energy     719272.4 (Joules/Mol)
                                  171.91022 (Kcal/Mol)
 Warning -- explicit consideration of  17 degrees of freedom as
           vibrations may cause significant error
 Vibrational temperatures:     95.18   187.77   250.91   287.21   352.07
          (Kelvin)            373.28   422.27   470.08   492.02   547.45
                              588.25   611.18   656.27   709.38   718.94
                              759.95   812.85   974.97   992.07  1103.15
                             1157.01  1191.21  1231.94  1255.33  1298.49
                             1337.38  1374.96  1397.48  1414.60  1427.94
                             1465.05  1483.72  1528.72  1564.11  1578.73
                             1647.31  1664.57  1694.84  1707.94  1717.10
                             1739.98  1805.87  1820.19  1846.51  1878.43
                             1890.53  1916.32  1953.87  1975.03  1989.61
                             1992.17  2000.62  2016.88  2022.33  2033.63
                             2078.58  2144.86  2157.67  2172.42  2183.15
                             2185.53  2193.85  2206.80  2214.55  2226.53
                             2611.19  4288.93  4341.00  4349.73  4357.84
                             4359.65  4363.22  4366.93  4370.64  4395.31
                             4401.49  4412.67  4417.29  4419.58  4432.81
                             4467.60  4479.43  4483.29  4508.99

 Zero-point correction=                           0.273956 (Hartree/Particle)
 Thermal correction to Energy=                    0.284898
 Thermal correction to Enthalpy=                  0.285842
 Thermal correction to Gibbs Free Energy=         0.238195
 Sum of electronic and zero-point Energies=           -504.978030
 Sum of electronic and thermal Energies=              -504.967088
 Sum of electronic and thermal Enthalpies=            -504.966144
 Sum of electronic and thermal Free Energies=         -505.013791

                     E (Thermal)             CV                S
                      KCal/Mol        Cal/Mol-Kelvin    Cal/Mol-Kelvin
 Total                  178.776             45.332            100.281
 Electronic               0.000              0.000              0.000
 Translational            0.889              2.981             41.231
 Rotational               0.889              2.981             30.539
 Vibrational            176.999             39.370             28.511
 Vibration     1          0.598              1.970              4.265
 Vibration     2          0.612              1.923              2.939
 Vibration     3          0.627              1.874              2.388
 Vibration     4          0.638              1.840              2.137
 Vibration     5          0.660              1.772              1.768
 Vibration     6          0.668              1.747              1.665
 Vibration     7          0.688              1.686              1.454
 Vibration     8          0.710              1.622              1.276
 Vibration     9          0.721              1.592              1.203
 Vibration    10          0.750              1.512              1.037
 Vibration    11          0.773              1.451              0.931
 Vibration    12          0.787              1.416              0.876
 Vibration    13          0.814              1.347              0.777
 Vibration    14          0.849              1.265              0.676
 Vibration    15          0.855              1.251              0.659
 Vibration    16          0.883              1.188              0.591
 Vibration    17          0.921              1.107              0.514

 Normal termination of Gaussian 16 at Thu Feb 22 11:27:11 2024.
