 Gaussian 16, Revision A.03,
 Gaussian 16:  EM64M-G16RevA.03 25-Dec-2016

 ---------------------
 # freq b3lyp/6-31g(d)
 ---------------------

 ---------
 good luck
 ---------
 Symbolic Z-matrix:
 Charge =  0 Multiplicity = 1

                         Standard orientation:
 ---------------------------------------------------------------------
 Center     Atomic      Atomic             Coordinates (Angstroms)
 Number     Number       Type             X           Y           Z
 ---------------------------------------------------------------------
      1          8           0       -2.162641   -1.914412    0.452585
      2          6           0       -1.962906   -0.846583   -0.098139
      3          6           0       -0.999411   -0.694318   -1.267179
      4          6           0        0.042174    0.436095   -1.027856
      5         14           0        1.513865   -0.085800    0.101649
      6          6           0        1.007957   -0.702127    1.821908
      7          6           0        2.679101    1.400643    0.281916
      8          6           0        2.432653   -1.484288   -0.791392
      9          6           0       -0.692916    1.743678   -0.650232
     10          6           0       -1.632238    1.579851    0.554536
     11          6           0       -2.651136    0.440287    0.335536
     12          1           0       -0.534929   -1.665479   -1.462268
     13          1           0       -1.604211   -0.436458   -2.152310
     14          1           0        0.543553    0.613447   -1.992873
     15          1           0        0.613324    0.100299    2.455973
     16          1           0        1.883313   -1.119571    2.335759
     17          1           0        0.248364   -1.489602    1.768809
     18          1           0        3.587315    1.115449    0.826950
     19          1           0        2.212899    2.224782    0.834948
     20          1           0        2.991561    1.791243   -0.694369
     21          1           0        2.743966   -1.186936   -1.800291
     22          1           0        3.336725   -1.767613   -0.238530
     23          1           0        1.814494   -2.384835   -0.885744
     24          1           0        0.027609    2.546489   -0.451302
     25          1           0       -1.290492    2.078179   -1.513337
     26          1           0       -1.048777    1.367785    1.458846
     27          1           0       -2.168864    2.517380    0.744937
     28          1           0       -3.345512    0.734086   -0.466626
     29          1           0       -3.242981    0.238408    1.233075
 ---------------------------------------------------------------------

 SCF Done:  E(RB3LYP) =  -718.556900985     A.U. after   14 cycles

 The electronic state is 1-A.
 Alpha  occ. eigenvalues --  -66.11749 -19.13161 -10.26737 -10.19246 -10.18997
 Alpha  occ. eigenvalues --  -10.18986 -10.18917 -10.18205 -10.16154 -10.15924
 Alpha  occ. eigenvalues --  -10.15707  -5.26173  -3.62056  -3.62044  -3.62037
 Alpha  occ. eigenvalues --   -1.02990  -0.82556  -0.75140  -0.72355  -0.70561
 Alpha  occ. eigenvalues --   -0.67517  -0.67290  -0.62236  -0.58519  -0.52473
 Alpha  occ. eigenvalues --   -0.47669  -0.46325  -0.44866  -0.44061  -0.42790
 Alpha  occ. eigenvalues --   -0.41415  -0.40721  -0.40124  -0.39799  -0.39405
 Alpha  occ. eigenvalues --   -0.38963  -0.38588  -0.38001  -0.37832  -0.35480
 Alpha  occ. eigenvalues --   -0.34208  -0.32742  -0.32281  -0.29360  -0.29301
 Alpha  occ. eigenvalues --   -0.27292  -0.23303
 Alpha virt. eigenvalues --   -0.01277   0.06463   0.08505   0.09079   0.09902
 Alpha virt. eigenvalues --    0.10684   0.11191   0.12713   0.13467   0.14038
 Alpha virt. eigenvalues --    0.14421   0.14883   0.16042   0.16392   0.16877

 Mulliken charges:
               1
     1  O   -0.456412
     2  C    0.463944
     3  C   -0.362301
     4  C   -0.290914
     5  Si   0.745344
     6  C   -0.682611
     7  C   -0.657880
     8  C   -0.662501
     9  C   -0.275719
    10  C   -0.279497
    11  C   -0.339016
    12  H    0.164955
    13  H    0.148569
    14  H    0.144149
    15  H    0.155946
    16  H    0.160612
    17  H    0.186240
    18  H    0.161879
    19  H    0.157133
    20  H    0.157082
    21  H    0.155837
    22  H    0.160991
    23  H    0.165352
    24  H    0.142366
    25  H    0.127032
    26  H    0.154991
    27  H    0.141609
    28  H    0.151420
    29  H    0.161402
 Sum of Mulliken charges =  -0.00000

 Dipole moment (field-independent basis, Debye):
    X=              0.8603    Y=              2.5380    Z=             -1.1178  Tot=              2.9036
 Quadrupole moment (field-independent basis, Debye-Ang):
   XX=            -76.9651   YY=            -81.6774   ZZ=            -75.1877
   XY=             -6.5028   XZ=              2.6439   YZ=              1.9999

  Exact polarizability: 120.749  -1.910 113.265  -1.590  -1.822 103.923
 Approx polarizability: 154.582   0.809 167.421  -1.149  -8.592 155.231

                      1                      2                      3
                      A                      A                      A
 Frequencies --     24.2761                79.7910                92.9593
 Red. masses --      3.1334                 7.1332                 3.1998
 Frc consts  --      0.0011                 0.0268                 0.0163
 IR Inten    --      0.3679                 4.0331                 0.7138

                      4                      5                      6
                      A                      A                      A
 Frequencies --    137.1661               145.4213               156.5073
 Red. masses --      1.9577                 1.1097                 1.4644
 Frc consts  --      0.0217                 0.0138                 0.0211
 IR Inten    --      0.2785                 0.0496                 0.5911

                      7                      8                      9
                      A                      A                      A
 Frequencies --    172.5796               175.0460               206.4195
 Red. masses --      1.4264                 1.5366                 2.2368
 Frc consts  --      0.0250                 0.0277                 0.0562
 IR Inten    --      0.3628                 0.0600                 0.7763

                     10                     11                     12
                      A                      A                      A
 Frequencies --    206.8907               219.2878               244.1485
 Red. masses --      1.9403                 2.3592                 2.4211
 Frc consts  --      0.0489                 0.0668                 0.0850
 IR Inten    --      1.4238                 1.6482                 0.5897

                     13                     14                     15
                      A                      A                      A
 Frequencies --    303.2619               329.0614               411.3770
 Red. masses --      2.9406                 2.2607                 2.6768
 Frc consts  --      0.1593                 0.1442                 0.2669
 IR Inten    --      1.3875                 2.0954                 1.0620

                     16                     17                     18
                      A                      A                      A
 Frequencies --    452.2874               488.1735               523.4363
 Red. masses --      2.3997                 3.6101                 2.8267
 Frc consts  --      0.2892                 0.5069                 0.4563
 IR Inten    --      5.2283                 9.8944                 0.0686

                     19                     20                     21
                      A                      A                      A
 Frequencies --    572.3467               637.9863               681.6991
 Red. masses --      3.4758                 3.3154                 2.5189
 Frc consts  --      0.6708                 0.7951                 0.6897
 IR Inten    --      2.2690                 9.5945                 6.9358

                     22                     23                     24
                      A                      A                      A
 Frequencies --    688.3188               690.4574               703.0232
 Red. masses --      2.5400                 2.7940                 1.1795
 Frc consts  --      0.7090                 0.7848                 0.3435
 IR Inten    --      8.9463                 8.5554                 0.3284

                     25                     26                     27
                      A                      A                      A
 Frequencies --    764.1839               778.3981               779.6270
 Red. masses --      2.2482                 1.4483                 1.5144
 Frc consts  --      0.7735                 0.5170                 0.5423
 IR Inten    --      4.6999                15.9426                20.6553

                     28                     29                     30
                      A                      A                      A
 Frequencies --    840.3819               853.1331               878.9966
 Red. masses --      1.6799                 2.4218                 1.5677
 Frc consts  --      0.6990                 1.0385                 0.7137
 IR Inten    --      0.6711                 0.8725                76.3827

                     31                     32                     33
                      A                      A                      A
 Frequencies --    884.9128               899.5268               909.3048
 Red. masses --      1.5651                 1.6451                 1.7672
 Frc consts  --      0.7221                 0.7843                 0.8609
 IR Inten    --     70.3484               130.8086                21.8491

                     34                     35                     36
                      A                      A                      A
 Frequencies --    923.5547               998.1704              1023.4230
 Red. masses --      2.2227                 2.2500                 1.9097
 Frc consts  --      1.1170                 1.3208                 1.1785
 IR Inten    --     38.3805                 3.1651                 0.5290

                     37                     38                     39
                      A                      A                      A
 Frequencies --   1083.5618              1093.7709              1114.6173
 Red. masses --      1.7999                 1.6928                 1.3291
 Frc consts  --      1.2451                 1.1932                 0.9729
 IR Inten    --      8.9021                 2.3752                 7.8836

                     40                     41                     42
                      A                      A                      A
 Frequencies --   1158.1032              1199.5458              1250.1748
 Red. masses --      1.4884                 1.3236                 1.8055
 Frc consts  --      1.1762                 1.1221                 1.6626
 IR Inten    --     15.5385                 3.1194                28.4264

                     43                     44                     45
                      A                      A                      A
 Frequencies --   1269.1642              1298.4271              1319.2778
 Red. masses --      1.3459                 1.4438                 1.3675
 Frc consts  --      1.2773                 1.4341                 1.4024
 IR Inten    --      0.9429                 1.6809                 1.0894

                     46                     47                     48
                      A                      A                      A
 Frequencies --   1326.9148              1330.0197              1339.7478
 Red. masses --      1.2435                 1.2435                 1.2296
 Frc consts  --      1.2900                 1.2961                 1.3003
 IR Inten    --     30.4493                29.3622                16.3920

                     49                     50                     51
                      A                      A                      A
 Frequencies --   1355.0560              1368.0831              1385.7647
 Red. masses --      1.4835                 1.4208                 1.3983
 Frc consts  --      1.6049                 1.5668                 1.5821
 IR Inten    --     10.6934                 2.6761                10.6617

                     52                     53                     54
                      A                      A                      A
 Frequencies --   1401.1767              1488.8339              1491.4947
 Red. masses --      1.4613                 1.0566                 1.0536
 Frc consts  --      1.6903                 1.3800                 1.3809
 IR Inten    --      3.2177                 0.1190                 0.0174

                     55                     56                     57
                      A                      A                      A
 Frequencies --   1492.8241              1493.6374              1500.3045
 Red. masses --      1.0565                 1.0900                 1.0619
 Frc consts  --      1.3871                 1.4327                 1.4083
 IR Inten    --      0.7366                 6.8703                 2.6197

                     58                     59                     60
                      A                      A                      A
 Frequencies --   1502.7428              1507.0913              1510.5159
 Red. masses --      1.0517                 1.0732                 1.0482
 Frc consts  --      1.3993                 1.4361                 1.4091
 IR Inten    --      3.7613                 9.6062                 9.4865

                     61                     62                     63
                      A                      A                      A
 Frequencies --   1523.9137              1532.0751              1810.1125
 Red. masses --      1.0804                 1.0927                10.8689
 Frc consts  --      1.4783                 1.5112                20.9821
 IR Inten    --      5.3645                 3.8586               164.2781

                     64                     65                     66
                      A                      A                      A
 Frequencies --   2989.9205              2999.8976              3008.6135
 Red. masses --      1.0774                 1.0712                 1.0758
 Frc consts  --      5.6749                 5.6800                 5.7376
 IR Inten    --     31.9902                 8.8030                53.9795

                     67                     68                     69
                      A                      A                      A
 Frequencies --   3024.1820              3039.0662              3040.4562
 Red. masses --      1.0691                 1.0356                 1.0357
 Frc consts  --      5.7609                 5.6353                 5.6412
 IR Inten    --     21.6909                 6.8585                 6.6270

                     70                     71                     72
                      A                      A                      A
 Frequencies --   3043.4082              3051.6669              3074.1430
 Red. masses --      1.0369                 1.0616                 1.0896
 Frc consts  --      5.6586                 5.8250                 6.0670
 IR Inten    --      3.5824                24.1524                40.5552

                     73                     74                     75
                      A                      A                      A
 Frequencies --   3089.8838              3109.1152              3109.3725
 Red. masses --      1.1032                 1.1000                 1.0994
 Frc consts  --      6.2056                 6.2647                 6.2628
 IR Inten    --     55.9324                 0.2745                 1.0565

                     76                     77                     78
                      A                      A                      A
 Frequencies --   3110.7366              3111.8497              3113.0617
 Red. masses --      1.0942                 1.1001                 1.0996
 Frc consts  --      6.2383                 6.2765                 6.2786
 IR Inten    --     14.6914                31.4095                32.7529

                     79                     80                     81
                      A                      A                      A
 Frequencies --   3116.3805              3118.7407              3130.0263
 Red. masses --      1.0982                 1.0952                 1.1003
 Frc consts  --      6.2839                 6.2761                 6.3511
 IR Inten    --     13.2847                21.3307                 7.3944

 - Thermochemistry -
 -------------------
 Temperature   298.150 Kelvin.  Pressure   1.00000 Atm.
 Atom     1 has atomic number  8 and mass  15.99491

 Molecular mass:   170.11269 amu.
 Principal axes and moments of inertia in atomic units:
                           1         2         3
     Eigenvalues --  1351.706662524.410522929.86532
           X            0.99931  -0.03697   0.00212
           Y            0.03690   0.99901   0.02484
           Z           -0.00303  -0.02475   0.99969
 This molecule is an asymmetric top.
 Rotational symmetry number  1.
 Warning -- assumption of classical behavior for rotation
           may cause significant error
 Rotational temperatures (Kelvin)      0.06408     0.03431     0.02956
 Rotational constants (GHZ):           1.33516     0.71492     0.61598
 Zero-point vibrational energy     665739.8 (Joules/Mol)
                                  159.11564 (Kcal/Mol)
 Warning -- explicit consideration of  19 degrees of freedom as
           vibrations may cause significant error
 Vibrational temperatures:     34.93   114.80   133.75   197.35   209.23
          (Kelvin)            225.18   248.30   251.85   296.99   297.67
                              315.51   351.28   436.33   473.45   591.88
                              650.74   702.37   753.11   823.48   917.92
                              980.81   990.34   993.41  1011.49  1099.49
                             1119.94  1121.71  1209.12  1227.47  1264.68
                             1273.19  1294.22  1308.29  1328.79  1436.14
                             1472.48  1559.00  1573.69  1603.69  1666.25
                             1725.88  1798.72  1826.04  1868.15  1898.15
                             1909.13  1913.60  1927.60  1949.62  1968.37
                             1993.81  2015.98  2142.10  2145.93  2147.84
                             2149.01  2158.60  2162.11  2168.37  2173.30
                             2192.57  2204.31  2604.35  4301.83  4316.18
                             4328.72  4351.12  4372.54  4374.54  4378.79
                             4390.67  4423.01  4445.65  4473.32  4473.69
                             4475.66  4477.26  4479.00  4483.78  4487.17
                             4503.41

 Zero-point correction=                           0.253567 (Hartree/Particle)
 Thermal correction to Energy=                    0.267682
 Thermal correction to Enthalpy=                  0.268626
 Thermal correction to Gibbs Free Energy=         0.213052
 Sum of electronic and zero-point Energies=           -718.303334
 Sum of electronic and thermal Energies=              -718.289219
 Sum of electronic and thermal Enthalpies=            -718.288275
 Sum of electronic and thermal Free Energies=         -718.343849

                     E (Thermal)             CV                S
                      KCal/Mol        Cal/Mol-Kelvin    Cal/Mol-Kelvin
 Total                  167.973             52.579            116.966
 Electronic               0.000              0.000              0.000
 Translational            0.889              2.981             41.302
 Rotational               0.889              2.981             30.681
 Vibrational            166.195             46.618             44.983
 Vibration     1          0.593              1.985              6.250
 Vibration     2          0.600              1.963              3.896
 Vibration     3          0.602              1.954              3.597
 Vibration     4          0.614              1.916              2.843
 Vibration     5          0.617              1.908              2.731
 Vibration     6          0.620              1.895              2.592
 Vibration     7          0.626              1.876              2.407
 Vibration     8          0.627              1.873              2.381
 Vibration     9          0.641              1.831              2.075
 Vibration    10          0.641              1.830              2.071
 Vibration    11          0.647              1.812              1.965
 Vibration    12          0.659              1.772              1.772
 Vibration    13          0.695              1.668              1.399
 Vibration    14          0.712              1.617              1.265
 Vibration    15          0.775              1.446              0.922
 Vibration    16          0.811              1.356              0.789
 Vibration    17          0.844              1.276              0.688
 Vibration    18          0.878              1.198              0.602
 Vibration    19          0.929              1.091              0.500

 Normal termination of Gaussian 16 at Sat Feb 24 04:23:20 2024.
