 Gaussian 16, Revision A.03,
 Gaussian 16:  EM64M-G16RevA.03 25-Dec-2016

 ---------------------
 # freq b3lyp/6-31g(d)
 ---------------------

 ---------
 good luck
 ---------
 Symbolic Z-matrix:
 Charge =  0 Multiplicity = 1

                         Standard orientation:
 ---------------------------------------------------------------------
 Center     Atomic      Atomic             Coordinates (Angstroms)
 Number     Number       Type             X           Y           Z
 ---------------------------------------------------------------------
      1          8           0        3.097093    1.703233   -0.386841
      2          6           0        2.403492    0.802968    0.048508
      3          6           0        0.915974    0.981056    0.330278
      4          6           0        0.060785   -0.126609   -0.345048
      5         14           0       -1.816149    0.093377   -0.022486
      6          6           0       -2.187894   -0.056126    1.831505
      7          6           0       -2.362387    1.798737   -0.643184
      8          6           0       -2.771642   -1.243958   -0.968194
      9          6           0        0.599766   -1.522052    0.041501
     10          6           0        2.085921   -1.684109   -0.314960
     11          6           0        2.953136   -0.587516    0.337312
     12          1           0        0.629391    1.984702    0.002238
     13          1           0        0.775005    0.933723    1.421695
     14          1           0        0.189262   -0.016383   -1.435371
     15          1           0       -3.261125    0.068018    2.021278
     16          1           0       -1.897430   -1.036139    2.228667
     17          1           0       -1.663698    0.708676    2.417067
     18          1           0       -3.444489    1.929492   -0.519906
     19          1           0       -1.870430    2.612370   -0.097590
     20          1           0       -2.135179    1.929991   -1.708195
     21          1           0       -2.553140   -1.209768   -2.042593
     22          1           0       -2.530068   -2.252383   -0.612413
     23          1           0       -3.853390   -1.105968   -0.849598
     24          1           0        0.019789   -2.306812   -0.459994
     25          1           0        0.469364   -1.682588    1.122597
     26          1           0        2.450315   -2.672968   -0.009133
     27          1           0        2.202167   -1.631148   -1.406331
     28          1           0        3.993519   -0.630200    0.001668
     29          1           0        2.946573   -0.730106    1.429149
 ---------------------------------------------------------------------

 SCF Done:  E(RB3LYP) =  -718.560058381     A.U. after   13 cycles

 The electronic state is 1-A.
 Alpha  occ. eigenvalues --  -66.11946 -19.12924 -10.26492 -10.19193 -10.19043
 Alpha  occ. eigenvalues --  -10.18917 -10.18796 -10.18153 -10.16428 -10.16364
 Alpha  occ. eigenvalues --  -10.16238  -5.26404  -3.62280  -3.62275  -3.62269
 Alpha  occ. eigenvalues --   -1.02778  -0.82588  -0.75107  -0.72330  -0.70778
 Alpha  occ. eigenvalues --   -0.67877  -0.67734  -0.61983  -0.58621  -0.52798
 Alpha  occ. eigenvalues --   -0.47530  -0.46149  -0.45682  -0.43412  -0.42612
 Alpha  occ. eigenvalues --   -0.41686  -0.41219  -0.40691  -0.40534  -0.39472
 Alpha  occ. eigenvalues --   -0.38957  -0.38614  -0.38241  -0.36036  -0.35492
 Alpha  occ. eigenvalues --   -0.34908  -0.32974  -0.32283  -0.29813  -0.29648
 Alpha  occ. eigenvalues --   -0.28374  -0.22711
 Alpha virt. eigenvalues --   -0.00907   0.06586   0.08135   0.08724   0.09561
 Alpha virt. eigenvalues --    0.10967   0.11421   0.12066   0.13252   0.13752
 Alpha virt. eigenvalues --    0.14610   0.14977   0.15384   0.16603   0.16877

 Mulliken charges:
               1
     1  O   -0.447345
     2  C    0.448087
     3  C   -0.361834
     4  C   -0.286600
     5  Si   0.748669
     6  C   -0.666086
     7  C   -0.660837
     8  C   -0.660424
     9  C   -0.277917
    10  C   -0.271817
    11  C   -0.339606
    12  H    0.164827
    13  H    0.150695
    14  H    0.142944
    15  H    0.162726
    16  H    0.158074
    17  H    0.158499
    18  H    0.161510
    19  H    0.162572
    20  H    0.161507
    21  H    0.159701
    22  H    0.159212
    23  H    0.162207
    24  H    0.142734
    25  H    0.133556
    26  H    0.139647
    27  H    0.143694
    28  H    0.161301
    29  H    0.150302
 Sum of Mulliken charges =  -0.00000

 Dipole moment (field-independent basis, Debye):
    X=             -2.1711    Y=             -2.2472    Z=              0.8436  Tot=              3.2365
 Quadrupole moment (field-independent basis, Debye-Ang):
   XX=            -83.5681   YY=            -80.1109   ZZ=            -75.2034
   XY=             -8.5278   XZ=              2.8481   YZ=              1.5114

  Exact polarizability: 131.290   0.487 113.292  -0.628  -1.709  99.304
 Approx polarizability: 163.874   7.828 163.016  -4.124  -6.163 151.031

                      1                      2                      3
                      A                      A                      A
 Frequencies --     30.3593                75.7979                95.5323
 Red. masses --      3.2777                 3.1464                 3.3724
 Frc consts  --      0.0018                 0.0107                 0.0181
 IR Inten    --      0.8659                 1.1736                 1.9505

                      4                      5                      6
                      A                      A                      A
 Frequencies --    105.3898               139.9274               148.2826
 Red. masses --      3.1153                 1.0703                 1.2421
 Frc consts  --      0.0204                 0.0123                 0.0161
 IR Inten    --      0.4626                 0.1123                 0.1980

                      7                      8                      9
                      A                      A                      A
 Frequencies --    152.9142               163.3414               187.8276
 Red. masses --      1.0224                 1.9281                 2.4254
 Frc consts  --      0.0141                 0.0303                 0.0504
 IR Inten    --      0.0069                 0.0855                 0.2753

                     10                     11                     12
                      A                      A                      A
 Frequencies --    194.5739               209.4081               258.2658
 Red. masses --      2.4830                 2.3360                 2.4081
 Frc consts  --      0.0554                 0.0604                 0.0946
 IR Inten    --      1.2137                 1.1677                 0.6760

                     13                     14                     15
                      A                      A                      A
 Frequencies --    283.2392               319.8915               387.3969
 Red. masses --      2.7365                 3.7538                 3.1577
 Frc consts  --      0.1293                 0.2263                 0.2792
 IR Inten    --      2.0096                 4.0246                 1.2229

                     16                     17                     18
                      A                      A                      A
 Frequencies --    424.1974               465.9827               505.9377
 Red. masses --      2.3459                 1.8107                 3.3913
 Frc consts  --      0.2487                 0.2317                 0.5115
 IR Inten    --      2.1512                 3.9459                11.4931

                     19                     20                     21
                      A                      A                      A
 Frequencies --    587.7247               631.3580               688.6070
 Red. masses --      3.7683                 3.9078                 2.5213
 Frc consts  --      0.7669                 0.9178                 0.7044
 IR Inten    --      0.9096                 8.7595                 9.7680

                     22                     23                     24
                      A                      A                      A
 Frequencies --    689.4445               700.0445               723.0718
 Red. masses --      2.4774                 1.1679                 2.0245
 Frc consts  --      0.6938                 0.3372                 0.6236
 IR Inten    --      9.1069                 0.0143                 5.0908

                     25                     26                     27
                      A                      A                      A
 Frequencies --    765.1217               772.0575               782.4046
 Red. masses --      2.1684                 1.4905                 1.7462
 Frc consts  --      0.7479                 0.5234                 0.6298
 IR Inten    --      0.8091                15.7376                15.3220

                     28                     29                     30
                      A                      A                      A
 Frequencies --    848.9009               868.4573               879.0961
 Red. masses --      1.6563                 2.0219                 1.4953
 Frc consts  --      0.7032                 0.8985                 0.6808
 IR Inten    --      2.1179                 9.2109                30.1598

                     31                     32                     33
                      A                      A                      A
 Frequencies --    885.0280               886.6544               902.3108
 Red. masses --      1.7075                 1.6558                 1.7795
 Frc consts  --      0.7880                 0.7669                 0.8536
 IR Inten    --     74.9930                79.7259               129.1480

                     34                     35                     36
                      A                      A                      A
 Frequencies --    919.4179               992.2214              1039.8241
 Red. masses --      2.4912                 2.2118                 2.0059
 Frc consts  --      1.2408                 1.2830                 1.2778
 IR Inten    --     52.1092                 8.0925                 3.6453

                     37                     38                     39
                      A                      A                      A
 Frequencies --   1078.1015              1082.3695              1109.5072
 Red. masses --      1.4732                 1.9028                 2.1520
 Frc consts  --      1.0089                 1.3134                 1.5608
 IR Inten    --     11.4624                 0.8460                13.8575

                     40                     41                     42
                      A                      A                      A
 Frequencies --   1193.4390              1224.4482              1254.5439
 Red. masses --      1.5255                 1.5575                 1.7481
 Frc consts  --      1.2802                 1.3758                 1.6211
 IR Inten    --      3.3132                30.7750                33.2136

                     43                     44                     45
                      A                      A                      A
 Frequencies --   1269.2323              1306.8212              1319.5409
 Red. masses --      1.3071                 1.2312                 1.3518
 Frc consts  --      1.2407                 1.2388                 1.3868
 IR Inten    --      2.4134                 0.5339                 8.5179

                     46                     47                     48
                      A                      A                      A
 Frequencies --   1327.8127              1329.3269              1338.1149
 Red. masses --      1.2447                 1.2618                 1.2184
 Frc consts  --      1.2930                 1.3137                 1.2854
 IR Inten    --     33.1392                24.6636                12.6175

                     49                     50                     51
                      A                      A                      A
 Frequencies --   1355.1136              1360.4958              1390.2074
 Red. masses --      1.3644                 1.3594                 1.3981
 Frc consts  --      1.4761                 1.4825                 1.5920
 IR Inten    --      5.6115                 4.8932                 9.0794

                     52                     53                     54
                      A                      A                      A
 Frequencies --   1394.5690              1489.4336              1490.1445
 Red. masses --      1.4477                 1.0669                 1.0637
 Frc consts  --      1.6589                 1.3944                 1.3917
 IR Inten    --      5.9762                 1.9658                 1.1567

                     55                     56                     57
                      A                      A                      A
 Frequencies --   1490.9703              1491.6540              1498.4222
 Red. masses --      1.0533                 1.0710                 1.0821
 Frc consts  --      1.3795                 1.4040                 1.4314
 IR Inten    --      0.3244                 2.9627                 6.9016

                     58                     59                     60
                      A                      A                      A
 Frequencies --   1502.5225              1503.2808              1508.2172
 Red. masses --      1.0500                 1.0556                 1.0496
 Frc consts  --      1.3967                 1.4055                 1.4067
 IR Inten    --      4.2969                 1.5486                 4.6494

                     61                     62                     63
                      A                      A                      A
 Frequencies --   1518.1446              1527.3984              1814.9954
 Red. masses --      1.0813                 1.0942                10.8896
 Frc consts  --      1.4683                 1.5040                21.1355
 IR Inten    --      7.3783                 0.4610               207.1405

                     64                     65                     66
                      A                      A                      A
 Frequencies --   2982.9757              3013.7854              3019.0257
 Red. masses --      1.0807                 1.0685                 1.0673
 Frc consts  --      5.6659                 5.7180                 5.7314
 IR Inten    --      9.4694                 3.8368                15.6527

                     67                     68                     69
                      A                      A                      A
 Frequencies --   3022.9708              3035.7093              3039.8942
 Red. masses --      1.0698                 1.0607                 1.0356
 Frc consts  --      5.7601                 5.7594                 5.6387
 IR Inten    --     26.2760                38.2468                 5.9154

                     70                     71                     72
                      A                      A                      A
 Frequencies --   3040.5453              3042.1169              3073.1663
 Red. masses --      1.0356                 1.0355                 1.0942
 Frc consts  --      5.6410                 5.6464                 6.0886
 IR Inten    --      9.1117                 3.5011                40.8287

                     73                     74                     75
                      A                      A                      A
 Frequencies --   3078.5344              3109.6545              3110.2850
 Red. masses --      1.1039                 1.1005                 1.0998
 Frc consts  --      6.1641                 6.2702                 6.2685
 IR Inten    --     50.4554                 0.6274                 1.9239

                     76                     77                     78
                      A                      A                      A
 Frequencies --   3112.5289              3112.6411              3113.8454
 Red. masses --      1.0974                 1.0995                 1.1001
 Frc consts  --      6.2636                 6.2761                 6.2843
 IR Inten    --     15.6821                41.8469                 9.5668

                     79                     80                     81
                      A                      A                      A
 Frequencies --   3115.1330              3116.5944              3117.6890
 Red. masses --      1.1001                 1.0950                 1.0979
 Frc consts  --      6.2900                 6.2668                 6.2873
 IR Inten    --     29.7829                18.7062                19.7662

 - Thermochemistry -
 -------------------
 Temperature   298.150 Kelvin.  Pressure   1.00000 Atm.
 Atom     1 has atomic number  8 and mass  15.99491

 Molecular mass:   170.11269 amu.
 Principal axes and moments of inertia in atomic units:
                           1         2         3
     Eigenvalues --  1192.861183222.538053719.99314
           X            0.99963  -0.02696   0.00423
           Y            0.02692   0.99958   0.01040
           Z           -0.00451  -0.01028   0.99994
 This molecule is an asymmetric top.
 Rotational symmetry number  1.
 Warning -- assumption of classical behavior for rotation
           may cause significant error
 Rotational temperatures (Kelvin)      0.07261     0.02688     0.02328
 Rotational constants (GHZ):           1.51295     0.56004     0.48515
 Zero-point vibrational energy     664740.5 (Joules/Mol)
                                  158.87679 (Kcal/Mol)
 Warning -- explicit consideration of  19 degrees of freedom as
           vibrations may cause significant error
 Vibrational temperatures:     43.68   109.06   137.45   151.63   201.32
          (Kelvin)            213.35   220.01   235.01   270.24   279.95
                              301.29   371.59   407.52   460.25   557.38
                              610.33   670.45   727.93   845.60   908.38
                              990.75   991.96  1007.21  1040.34  1100.84
                             1110.82  1125.71  1221.38  1249.52  1264.82
                             1273.36  1275.70  1298.22  1322.84  1427.59
                             1496.08  1551.15  1557.29  1596.33  1717.09
                             1761.71  1805.01  1826.14  1880.22  1898.53
                             1910.43  1912.60  1925.25  1949.71  1957.45
                             2000.20  2006.47  2142.96  2143.99  2145.17
                             2146.16  2155.90  2161.79  2162.89  2169.99
                             2184.27  2197.59  2611.37  4291.84  4336.17
                             4343.70  4349.38  4367.71  4373.73  4374.67
                             4376.93  4421.60  4429.32  4474.10  4475.01
                             4478.23  4478.40  4480.13  4481.98  4484.08
                             4485.66

 Zero-point correction=                           0.253186 (Hartree/Particle)
 Thermal correction to Energy=                    0.267560
 Thermal correction to Enthalpy=                  0.268505
 Thermal correction to Gibbs Free Energy=         0.212149
 Sum of electronic and zero-point Energies=           -718.306872
 Sum of electronic and thermal Energies=              -718.292498
 Sum of electronic and thermal Enthalpies=            -718.291554
 Sum of electronic and thermal Free Energies=         -718.347910

                     E (Thermal)             CV                S
                      KCal/Mol        Cal/Mol-Kelvin    Cal/Mol-Kelvin
 Total                  167.897             52.832            118.611
 Electronic               0.000              0.000              0.000
 Translational            0.889              2.981             41.302
 Rotational               0.889              2.981             31.037
 Vibrational            166.119             46.871             46.272
 Vibration     1          0.594              1.984              5.806
 Vibration     2          0.599              1.965              3.997
 Vibration     3          0.603              1.952              3.543
 Vibration     4          0.605              1.945              3.352
 Vibration     5          0.615              1.913              2.805
 Vibration     6          0.618              1.905              2.694
 Vibration     7          0.619              1.899              2.636
 Vibration     8          0.623              1.887              2.511
 Vibration     9          0.633              1.857              2.249
 Vibration    10          0.635              1.847              2.184
 Vibration    11          0.642              1.826              2.049
 Vibration    12          0.667              1.749              1.673
 Vibration    13          0.682              1.705              1.514
 Vibration    14          0.706              1.635              1.311
 Vibration    15          0.756              1.497              1.010
 Vibration    16          0.786              1.418              0.878
 Vibration    17          0.823              1.326              0.749
 Vibration    18          0.861              1.237              0.643
 Vibration    19          0.945              1.058              0.471

 Normal termination of Gaussian 16 at Sat Feb 24 04:25:54 2024.
