 Gaussian 16, Revision A.03,
 Gaussian 16:  EM64M-G16RevA.03 25-Dec-2016

 ---------------------
 # freq b3lyp/6-31g(d)
 ---------------------

 ---------
 good luck
 ---------
 Symbolic Z-matrix:
 Charge =  0 Multiplicity = 1

                         Standard orientation:
 ---------------------------------------------------------------------
 Center     Atomic      Atomic             Coordinates (Angstroms)
 Number     Number       Type             X           Y           Z
 ---------------------------------------------------------------------
      1          8           0       -2.929559   -0.471989   -0.456873
      2          6           0       -1.778889   -0.151310   -0.217071
      3          6           0       -0.788502   -1.157478    0.358026
      4          6           0        0.127140   -1.722155   -0.777084
      5          6           0        1.499473   -1.039437   -0.606289
      6          6           0        1.615673   -0.965954    0.927924
      7          6           0        0.200153   -0.570581    1.429058
      8          6           0        0.020958    0.947819    1.597184
      9          6           0       -0.032163    1.707605    0.259392
     10          6           0        1.287032    1.618730   -0.542824
     11          6           0        1.609413    0.330007   -1.330331
     12          6           0       -1.290393    1.265015   -0.527066
     13          1           0       -1.399800   -1.962773    0.773420
     14          1           0       -0.299559   -1.588772   -1.778012
     15          1           0        0.236787   -2.802294   -0.624758
     16          1           0        2.278462   -1.690955   -1.021058
     17          1           0        2.393362   -0.278506    1.279749
     18          1           0        1.874475   -1.960752    1.312434
     19          1           0        0.007503   -1.040176    2.400309
     20          1           0        0.830836    1.345843    2.222615
     21          1           0       -0.914326    1.140692    2.143243
     22          1           0       -0.156741    2.771380    0.501493
     23          1           0        1.297524    2.441391   -1.271270
     24          1           0        2.111974    1.831792    0.150707
     25          1           0        2.637852    0.446572   -1.696144
     26          1           0        0.986672    0.292060   -2.234606
     27          1           0       -1.129155    1.331536   -1.612258
     28          1           0       -2.138778    1.925299   -0.316392
 ---------------------------------------------------------------------

 SCF Done:  E(RB3LYP) =  -504.029477734     A.U. after   13 cycles

 The electronic state is 1-A.
 Alpha  occ. eigenvalues --  -19.12473 -10.26295 -10.19340 -10.19192 -10.18957
 Alpha  occ. eigenvalues --  -10.18796 -10.18686 -10.18582 -10.18503 -10.18441
 Alpha  occ. eigenvalues --  -10.18323 -10.18136  -1.02514  -0.85978  -0.80068
 Alpha  occ. eigenvalues --   -0.77345  -0.73902  -0.69995  -0.67155  -0.65195
 Alpha  occ. eigenvalues --   -0.58766  -0.56072  -0.53641  -0.51206  -0.48694
 Alpha  occ. eigenvalues --   -0.47161  -0.45937  -0.45289  -0.43569  -0.42327
 Alpha  occ. eigenvalues --   -0.41265  -0.40582  -0.39140  -0.37979  -0.36139
 Alpha  occ. eigenvalues --   -0.35062  -0.34867  -0.34546  -0.33173  -0.31975
 Alpha  occ. eigenvalues --   -0.31041  -0.30720  -0.30161  -0.29912  -0.22738
 Alpha virt. eigenvalues --   -0.00850   0.05717   0.08815   0.10142   0.11401
 Alpha virt. eigenvalues --    0.12209   0.13632   0.15084   0.15541   0.16220
 Alpha virt. eigenvalues --    0.16558   0.16956   0.17333   0.18489   0.19139

 Mulliken charges:
               1
     1  O   -0.461752
     2  C    0.442103
     3  C   -0.172692
     4  C   -0.295940
     5  C   -0.085301
     6  C   -0.281610
     7  C   -0.094603
     8  C   -0.286832
     9  C   -0.080486
    10  C   -0.277561
    11  C   -0.276433
    12  C   -0.368522
    13  H    0.150525
    14  H    0.147492
    15  H    0.146892
    16  H    0.125058
    17  H    0.134315
    18  H    0.134429
    19  H    0.130539
    20  H    0.132141
    21  H    0.136140
    22  H    0.128881
    23  H    0.133570
    24  H    0.132265
    25  H    0.137003
    26  H    0.132803
    27  H    0.167826
    28  H    0.169751
 Sum of Mulliken charges =  -0.00000

 Dipole moment (field-independent basis, Debye):
    X=              3.0849    Y=              0.6919    Z=              0.4956  Tot=              3.2002
 Quadrupole moment (field-independent basis, Debye-Ang):
   XX=            -84.2117   YY=            -70.4781   ZZ=            -71.5912
   XY=             -3.0388   XZ=             -2.2304   YZ=             -0.7472

  Exact polarizability: 111.501  -0.164 106.330   0.190  -0.926  97.113
 Approx polarizability: 165.095   2.955 149.270   3.650  -0.735 144.154

                      1                      2                      3
                      A                      A                      A
 Frequencies --     30.5768               172.7713               210.3847
 Red. masses --      3.9668                 2.3617                 2.8812
 Frc consts  --      0.0022                 0.0415                 0.0751
 IR Inten    --      3.5038                 0.8524                 0.2829

                      4                      5                      6
                      A                      A                      A
 Frequencies --    286.9382               307.5671               329.7228
 Red. masses --      2.3333                 2.4974                 2.5987
 Frc consts  --      0.1132                 0.1392                 0.1665
 IR Inten    --      0.4159                 0.9287                 0.0920

                      7                      8                      9
                      A                      A                      A
 Frequencies --    376.6610               397.0151               429.1918
 Red. masses --      2.2735                 2.6585                 3.2719
 Frc consts  --      0.1900                 0.2469                 0.3551
 IR Inten    --      0.3082                 0.5630                 0.3045

                     10                     11                     12
                      A                      A                      A
 Frequencies --    458.9013               483.2067               520.7868
 Red. masses --      3.9833                 2.5317                 2.7673
 Frc consts  --      0.4942                 0.3483                 0.4422
 IR Inten    --      8.9664                 2.1579                 1.1069

                     13                     14                     15
                      A                      A                      A
 Frequencies --    579.4620               680.6776               710.2623
 Red. masses --      2.7329                 3.5120                 2.9646
 Frc consts  --      0.5407                 0.9587                 0.8812
 IR Inten    --      0.5254                 0.2293                 1.3886

                     16                     17                     18
                      A                      A                      A
 Frequencies --    726.3215               747.5587               773.2466
 Red. masses --      3.1929                 2.7905                 2.5264
 Frc consts  --      0.9924                 0.9188                 0.8900
 IR Inten    --      0.8291                 1.6725                 0.6278

                     19                     20                     21
                      A                      A                      A
 Frequencies --    807.3836               845.0570               881.5484
 Red. masses --      2.7473                 3.0031                 2.2346
 Frc consts  --      1.0552                 1.2636                 1.0232
 IR Inten    --      1.8158                 1.5322                 1.4784

                     22                     23                     24
                      A                      A                      A
 Frequencies --    906.7062               910.9877               932.2958
 Red. masses --      2.1715                 2.2526                 2.0765
 Frc consts  --      1.0518                 1.1014                 1.0634
 IR Inten    --      4.3206                 1.2439                 0.5863

                     25                     26                     27
                      A                      A                      A
 Frequencies --    964.2092               979.6925               988.8228
 Red. masses --      2.6237                 2.3150                 2.4911
 Frc consts  --      1.4372                 1.3091                 1.4351
 IR Inten    --      2.0790                 0.6136                 2.5606

                     28                     29                     30
                      A                      A                      A
 Frequencies --    996.3376              1036.8320              1055.2527
 Red. masses --      2.1834                 2.0028                 1.9530
 Frc consts  --      1.2770                 1.2686                 1.2813
 IR Inten    --      4.3805                 4.4783                 5.2433

                     31                     32                     33
                      A                      A                      A
 Frequencies --   1061.4080              1096.5768              1121.4450
 Red. masses --      2.0073                 1.9695                 1.7273
 Frc consts  --      1.3324                 1.3954                 1.2799
 IR Inten    --      0.3364                 9.8521                10.5239

                     34                     35                     36
                      A                      A                      A
 Frequencies --   1133.2618              1167.6450              1181.0621
 Red. masses --      1.3914                 2.0849                 1.0844
 Frc consts  --      1.0528                 1.6748                 0.8912
 IR Inten    --      3.9302                11.0157                 0.4052

                     37                     38                     39
                      A                      A                      A
 Frequencies --   1203.2839              1225.1687              1238.7827
 Red. masses --      1.2371                 1.3575                 1.1765
 Frc consts  --      1.0553                 1.2005                 1.0637
 IR Inten    --      2.8041                 2.9684                 2.1477

                     40                     41                     42
                      A                      A                      A
 Frequencies --   1249.4909              1267.1571              1274.3377
 Red. masses --      1.2840                 1.3152                 1.6901
 Frc consts  --      1.1810                 1.2443                 1.6170
 IR Inten    --      1.6815                 9.4590                 7.1088

                     43                     44                     45
                      A                      A                      A
 Frequencies --   1295.0204              1315.7457              1333.7740
 Red. masses --      1.3446                 1.3187                 1.3510
 Frc consts  --      1.3286                 1.3451                 1.4160
 IR Inten    --      9.6719                 1.1599                 0.4211

                     46                     47                     48
                      A                      A                      A
 Frequencies --   1342.8889              1351.9018              1357.2018
 Red. masses --      1.5373                 1.7371                 1.4800
 Frc consts  --      1.6333                 1.8705                 1.6062
 IR Inten    --      1.3089                 4.2584                 3.1134

                     49                     50                     51
                      A                      A                      A
 Frequencies --   1367.3280              1373.6938              1390.5835
 Red. masses --      1.4367                 1.4025                 1.4226
 Frc consts  --      1.5826                 1.5593                 1.6208
 IR Inten    --      0.9115                 4.7976                 4.4451

                     52                     53                     54
                      A                      A                      A
 Frequencies --   1398.3672              1406.6038              1419.0477
 Red. masses --      1.5132                 1.3908                 1.3823
 Frc consts  --      1.7433                 1.6212                 1.6400
 IR Inten    --      0.3084                 1.6817                 3.3509

                     55                     56                     57
                      A                      A                      A
 Frequencies --   1427.9264              1482.1617              1511.7246
 Red. masses --      1.3755                 1.0838                 1.0834
 Frc consts  --      1.6524                 1.4027                 1.4587
 IR Inten    --      4.3541                 8.3793                 0.7973

                     58                     59                     60
                      A                      A                      A
 Frequencies --   1517.4107              1523.6014              1527.9858
 Red. masses --      1.0895                 1.0926                 1.0819
 Frc consts  --      1.4780                 1.4943                 1.4883
 IR Inten    --      2.6476                 6.9690                12.3873

                     61                     62                     63
                      A                      A                      A
 Frequencies --   1543.1340              1799.6604              3017.4376
 Red. masses --      1.0911                11.4828                 1.0694
 Frc consts  --      1.5308                21.9119                 5.7369
 IR Inten    --      2.2599               189.7581                 6.1882

                     64                     65                     66
                      A                      A                      A
 Frequencies --   3022.1383              3029.6280              3036.5766
 Red. masses --      1.0632                 1.0672                 1.0747
 Frc consts  --      5.7214                 5.7711                 5.8387
 IR Inten    --     13.2296                24.4793                45.7681

                     67                     68                     69
                      A                      A                      A
 Frequencies --   3040.5858              3045.4786              3047.3167
 Red. masses --      1.0754                 1.0718                 1.0725
 Frc consts  --      5.8576                 5.8569                 5.8679
 IR Inten    --      7.5525                15.3658                15.2642

                     70                     71                     72
                      A                      A                      A
 Frequencies --   3055.3514              3061.0417              3064.0918
 Red. masses --      1.0873                 1.0825                 1.0978
 Frc consts  --      5.9803                 5.9762                 6.0729
 IR Inten    --     50.1776                86.7231                30.9910

                     73                     74                     75
                      A                      A                      A
 Frequencies --   3066.0440              3071.4456              3091.7706
 Red. masses --      1.0863                 1.0944                 1.1008
 Frc consts  --      6.0167                 6.0829                 6.1999
 IR Inten    --      5.9274                93.1177                30.8225

                     76                     77                     78
                      A                      A                      A
 Frequencies --   3093.2067              3095.4869              3104.4904
 Red. masses --      1.1011                 1.0957                 1.0898
 Frc consts  --      6.2072                 6.1856                 6.1884
 IR Inten    --     30.4310                13.9806                36.5492

 - Thermochemistry -
 -------------------
 Temperature   298.150 Kelvin.  Pressure   1.00000 Atm.
 Atom     1 has atomic number  8 and mass  15.99491

 Molecular mass:   164.12012 amu.
 Principal axes and moments of inertia in atomic units:
                           1         2         3
     Eigenvalues --  1348.237031780.670782071.86783
           X            0.99957  -0.02482  -0.01539
           Y            0.02468   0.99965  -0.00924
           Z            0.01561   0.00885   0.99984
 This molecule is an asymmetric top.
 Rotational symmetry number  1.
 Warning -- assumption of classical behavior for rotation
           may cause significant error
 Rotational temperatures (Kelvin)      0.06424     0.04864     0.04180
 Rotational constants (GHZ):           1.33859     1.01352     0.87107
 Zero-point vibrational energy     666163.6 (Joules/Mol)
                                  159.21691 (Kcal/Mol)
 Warning -- explicit consideration of  13 degrees of freedom as
           vibrations may cause significant error
 Vibrational temperatures:     43.99   248.58   302.70   412.84   442.52
          (Kelvin)            474.40   541.93   571.22   617.51   660.26
                              695.23   749.30   833.72   979.34  1021.91
                             1045.01  1075.57  1112.53  1161.64  1215.85
                             1268.35  1304.55  1310.71  1341.37  1387.28
                             1409.56  1422.70  1433.51  1491.77  1518.27
                             1527.13  1577.73  1613.51  1630.51  1679.98
                             1699.28  1731.26  1762.74  1782.33  1797.74
                             1823.16  1833.49  1863.25  1893.06  1919.00
                             1932.12  1945.09  1952.71  1967.28  1976.44
                             2000.74  2011.94  2023.79  2041.69  2054.47
                             2132.50  2175.03  2183.22  2192.12  2198.43
                             2220.23  2589.31  4341.42  4348.18  4358.96
                             4368.96  4374.72  4381.76  4384.41  4395.97
                             4404.16  4408.54  4411.35  4419.13  4448.37
                             4450.43  4453.72  4466.67

 Zero-point correction=                           0.253728 (Hartree/Particle)
 Thermal correction to Energy=                    0.263067
 Thermal correction to Enthalpy=                  0.264011
 Thermal correction to Gibbs Free Energy=         0.218992
 Sum of electronic and zero-point Energies=           -503.775749
 Sum of electronic and thermal Energies=              -503.766411
 Sum of electronic and thermal Enthalpies=            -503.765467
 Sum of electronic and thermal Free Energies=         -503.810486

                     E (Thermal)             CV                S
                      KCal/Mol        Cal/Mol-Kelvin    Cal/Mol-Kelvin
 Total                  165.077             39.878             94.750
 Electronic               0.000              0.000              0.000
 Translational            0.889              2.981             41.195
 Rotational               0.889              2.981             29.988
 Vibrational            163.299             33.916             23.567
 Vibration     1          0.594              1.984              5.792
 Vibration     2          0.626              1.876              2.405
 Vibration     3          0.643              1.825              2.040
 Vibration     4          0.684              1.698              1.492
 Vibration     5          0.697              1.659              1.375
 Vibration     6          0.713              1.616              1.261
 Vibration     7          0.747              1.520              1.053
 Vibration     8          0.764              1.477              0.974
 Vibration     9          0.791              1.407              0.861
 Vibration    10          0.817              1.341              0.769
 Vibration    11          0.839              1.287              0.701
 Vibration    12          0.876              1.204              0.608
 Vibration    13          0.936              1.076              0.486

 Normal termination of Gaussian 16 at Thu Feb 22 11:02:20 2024.
