 Gaussian 16, Revision A.03,
 Gaussian 16:  EM64M-G16RevA.03 25-Dec-2016

 ---------------------
 # freq b3lyp/6-31g(d)
 ---------------------

 ---------
 good luck
 ---------
 Symbolic Z-matrix:
 Charge =  0 Multiplicity = 1

                         Standard orientation:
 ---------------------------------------------------------------------
 Center     Atomic      Atomic             Coordinates (Angstroms)
 Number     Number       Type             X           Y           Z
 ---------------------------------------------------------------------
      1          8           0       -2.812998   -0.671896   -0.356479
      2          6           0       -1.719661   -0.311902    0.034354
      3          6           0       -1.424773    1.183693    0.271387
      4          6           0       -0.034938    1.696164   -0.203029
      5          6           0        0.983232    0.673287    0.272155
      6          6           0        2.462740    0.441213   -0.140640
      7          6           0        2.169435   -1.090192   -0.001684
      8          6           0        0.680406   -0.734397   -0.259405
      9          6           0       -0.597064   -1.325378    0.326201
     10          1           0       -2.247844    1.747177   -0.177491
     11          1           0       -1.490963    1.334893    1.360693
     12          1           0       -0.016653    1.771353   -1.298458
     13          1           0        0.139004    2.704550    0.192941
     14          1           0        0.947678    0.632572    1.372774
     15          1           0        3.245796    0.877460    0.486835
     16          1           0        2.648500    0.714996   -1.185528
     17          1           0        2.339338   -1.434747    1.024914
     18          1           0        2.661489   -1.778189   -0.695638
     19          1           0        0.554678   -0.657543   -1.350779
     20          1           0       -0.498716   -1.439747    1.416530
     21          1           0       -0.894590   -2.292533   -0.090999
 ---------------------------------------------------------------------

 SCF Done:  E(RB3LYP) =  -387.268090423     A.U. after   13 cycles

 The electronic state is 1-A.
 Alpha  occ. eigenvalues --  -19.13375 -10.27236 -10.19383 -10.19339 -10.19320
 Alpha  occ. eigenvalues --  -10.19088 -10.19056 -10.19022 -10.19008  -1.03312
 Alpha  occ. eigenvalues --   -0.86850  -0.78442  -0.74883  -0.67703  -0.63500
 Alpha  occ. eigenvalues --   -0.60775  -0.56320  -0.52881  -0.47690  -0.46637
 Alpha  occ. eigenvalues --   -0.45272  -0.44158  -0.43482  -0.40221  -0.39510
 Alpha  occ. eigenvalues --   -0.38650  -0.37842  -0.34900  -0.34312  -0.34071
 Alpha  occ. eigenvalues --   -0.32132  -0.30761  -0.28906  -0.23507
 Alpha virt. eigenvalues --   -0.01375   0.08957   0.09739   0.10699   0.11206
 Alpha virt. eigenvalues --    0.13534   0.14289   0.16030   0.16471   0.17093
 Alpha virt. eigenvalues --    0.17450   0.18223   0.18779   0.19582   0.21053

 Mulliken charges:
               1
     1  O   -0.443552
     2  C    0.448143
     3  C   -0.357783
     4  C   -0.270646
     5  C   -0.077538
     6  C   -0.291654
     7  C   -0.289389
     8  C   -0.094102
     9  C   -0.344842
    10  H    0.166853
    11  H    0.157906
    12  H    0.139629
    13  H    0.138994
    14  H    0.119600
    15  H    0.137954
    16  H    0.140143
    17  H    0.138582
    18  H    0.139959
    19  H    0.131132
    20  H    0.149881
    21  H    0.160730
 Sum of Mulliken charges =   0.00000

 Dipole moment (field-independent basis, Debye):
    X=              2.6825    Y=              0.9424    Z=              0.8708  Tot=              2.9736
 Quadrupole moment (field-independent basis, Debye-Ang):
   XX=            -65.0090   YY=            -54.2499   ZZ=            -52.9831
   XY=             -3.4194   XZ=             -2.3375   YZ=             -0.3751

  Exact polarizability:  93.987  -0.061  80.555   1.915   0.676  67.496
 Approx polarizability: 125.582   4.138 110.088   6.932   2.816 108.126

                      1                      2                      3
                      A                      A                      A
 Frequencies --     77.2882               167.7593               240.9262
 Red. masses --      4.5876                 2.2660                 2.0732
 Frc consts  --      0.0161                 0.0376                 0.0709
 IR Inten    --      3.4152                 0.5816                 0.1097

                      4                      5                      6
                      A                      A                      A
 Frequencies --    301.4808               340.0616               385.1699
 Red. masses --      2.6066                 2.9568                 3.0071
 Frc consts  --      0.1396                 0.2015                 0.2628
 IR Inten    --      0.6525                 0.2863                 1.3310

                      7                      8                      9
                      A                      A                      A
 Frequencies --    436.1904               491.6363               518.9260
 Red. masses --      2.7995                 2.4552                 2.3593
 Frc consts  --      0.3138                 0.3496                 0.3743
 IR Inten    --      3.5993                 4.8194                 4.7225

                     10                     11                     12
                      A                      A                      A
 Frequencies --    566.5256               679.0351               746.3930
 Red. masses --      3.6743                 2.6926                 2.4559
 Frc consts  --      0.6948                 0.7315                 0.8061
 IR Inten    --      2.6495                 0.8403                 3.9551

                     13                     14                     15
                      A                      A                      A
 Frequencies --    781.3202               796.1986               857.2515
 Red. masses --      1.8737                 1.8652                 1.5375
 Frc consts  --      0.6739                 0.6966                 0.6657
 IR Inten    --      1.6592                 0.9618                 2.4407

                     16                     17                     18
                      A                      A                      A
 Frequencies --    910.5756               927.3414               960.6022
 Red. masses --      2.7112                 1.7717                 1.8036
 Frc consts  --      1.3245                 0.8977                 0.9806
 IR Inten    --      0.0982                 1.5467                 3.0105

                     19                     20                     21
                      A                      A                      A
 Frequencies --    965.1984               972.4295              1015.8753
 Red. masses --      1.5052                 1.5858                 3.4310
 Frc consts  --      0.8262                 0.8835                 2.0862
 IR Inten    --      4.5632                 1.9278                 7.2253

                     22                     23                     24
                      A                      A                      A
 Frequencies --   1074.5299              1102.4308              1131.6691
 Red. masses --      1.2702                 1.8900                 2.2741
 Frc consts  --      0.8641                 1.3534                 1.7160
 IR Inten    --      2.7363                 2.4362                11.0228

                     25                     26                     27
                      A                      A                      A
 Frequencies --   1146.3284              1165.4277              1181.8649
 Red. masses --      2.1225                 1.9770                 1.8955
 Frc consts  --      1.6433                 1.5820                 1.5599
 IR Inten    --      2.0162                 0.4589                28.9347

                     28                     29                     30
                      A                      A                      A
 Frequencies --   1222.6433              1247.1682              1262.5295
 Red. masses --      1.6527                 1.4728                 1.2485
 Frc consts  --      1.4556                 1.3497                 1.1726
 IR Inten    --     13.3466                 1.5368                 3.1924

                     31                     32                     33
                      A                      A                      A
 Frequencies --   1270.2354              1274.1908              1284.5371
 Red. masses --      1.4488                 1.4472                 1.3747
 Frc consts  --      1.3773                 1.3844                 1.3365
 IR Inten    --      0.2572                 4.1239                 6.9480

                     34                     35                     36
                      A                      A                      A
 Frequencies --   1306.2731              1328.5225              1339.9075
 Red. masses --      1.4223                 1.3670                 1.3518
 Frc consts  --      1.4299                 1.4216                 1.4299
 IR Inten    --      1.6812                 3.4156                 1.1985

                     37                     38                     39
                      A                      A                      A
 Frequencies --   1364.2796              1423.5316              1434.7690
 Red. masses --      1.4362                 1.3833                 1.4700
 Frc consts  --      1.5750                 1.6516                 1.7829
 IR Inten    --      6.9656                 5.5267                 4.5846

                     40                     41                     42
                      A                      A                      A
 Frequencies --   1490.8705              1499.7933              1515.1108
 Red. masses --      1.0904                 1.0917                 1.0879
 Frc consts  --      1.4280                 1.4468                 1.4714
 IR Inten    --      6.5443                 6.8954                 3.4232

                     43                     44                     45
                      A                      A                      A
 Frequencies --   1529.7736              1533.7599              1811.3447
 Red. masses --      1.1146                 1.1312                11.3103
 Frc consts  --      1.5368                 1.5678                21.8638
 IR Inten    --      1.9094                 0.5850               194.6290

                     46                     47                     48
                      A                      A                      A
 Frequencies --   2993.6209              3006.5818              3015.6161
 Red. masses --      1.0809                 1.0824                 1.0703
 Frc consts  --      5.7070                 5.7648                 5.7347
 IR Inten    --      2.9536                18.5530                 6.5173

                     49                     50                     51
                      A                      A                      A
 Frequencies --   3029.0688              3041.7113              3066.5691
 Red. masses --      1.0686                 1.0598                 1.0580
 Frc consts  --      5.7765                 5.7770                 5.8617
 IR Inten    --     25.3685                44.2387                49.4068

                     52                     53                     54
                      A                      A                      A
 Frequencies --   3068.0535              3081.5385              3111.6901
 Red. masses --      1.0619                 1.1046                 1.0962
 Frc consts  --      5.8894                 6.1799                 6.2536
 IR Inten    --     36.4695                39.0795                20.2063

                     55                     56                     57
                      A                      A                      A
 Frequencies --   3117.2636              3118.7951              3128.8497
 Red. masses --      1.1060                 1.0933                 1.1083
 Frc consts  --      6.3321                 6.2659                 6.3928
 IR Inten    --     32.2087                12.4750                61.3433

 - Thermochemistry -
 -------------------
 Temperature   298.150 Kelvin.  Pressure   1.00000 Atm.
 Atom     1 has atomic number  8 and mass  15.99491

 Molecular mass:   124.08882 amu.
 Principal axes and moments of inertia in atomic units:
                           1         2         3
     Eigenvalues --   566.141811414.210411843.18040
           X            0.99968  -0.02423  -0.00709
           Y            0.02417   0.99968  -0.00775
           Z            0.00728   0.00758   0.99994
 This molecule is an asymmetric top.
 Rotational symmetry number  1.
 Warning -- assumption of classical behavior for rotation
           may cause significant error
 Rotational temperatures (Kelvin)      0.15299     0.06125     0.04699
 Rotational constants (GHZ):           3.18779     1.27615     0.97915
 Zero-point vibrational energy     489625.8 (Joules/Mol)
                                  117.02337 (Kcal/Mol)
 Warning -- explicit consideration of  10 degrees of freedom as
           vibrations may cause significant error
 Vibrational temperatures:    111.20   241.37   346.64   433.76   489.27
          (Kelvin)            554.17   627.58   707.36   746.62   815.10
                              976.98  1073.89  1124.15  1145.55  1233.39
                             1310.12  1334.24  1382.09  1388.71  1399.11
                             1461.62  1546.01  1586.15  1628.22  1649.31
                             1676.79  1700.44  1759.11  1794.40  1816.50
                             1827.59  1833.28  1848.16  1879.44  1911.45
                             1927.83  1962.89  2048.14  2064.31  2145.03
                             2157.87  2179.91  2201.00  2206.74  2606.12
                             4307.15  4325.80  4338.80  4358.15  4376.34
                             4412.11  4414.24  4433.65  4477.03  4485.05
                             4487.25  4501.72

 Zero-point correction=                           0.186489 (Hartree/Particle)
 Thermal correction to Energy=                    0.194216
 Thermal correction to Enthalpy=                  0.195161
 Thermal correction to Gibbs Free Energy=         0.154203
 Sum of electronic and zero-point Energies=           -387.081602
 Sum of electronic and thermal Energies=              -387.073874
 Sum of electronic and thermal Enthalpies=            -387.072930
 Sum of electronic and thermal Free Energies=         -387.113887

                     E (Thermal)             CV                S
                      KCal/Mol        Cal/Mol-Kelvin    Cal/Mol-Kelvin
 Total                  121.873             31.037             86.201
 Electronic               0.000              0.000              0.000
 Translational            0.889              2.981             40.361
 Rotational               0.889              2.981             28.780
 Vibrational            120.095             25.075             17.060
 Vibration     1          0.599              1.964              3.959
 Vibration     2          0.624              1.882              2.460
 Vibration     3          0.658              1.778              1.796
 Vibration     4          0.693              1.671              1.409
 Vibration     5          0.720              1.595              1.212
 Vibration     6          0.754              1.502              1.019
 Vibration     7          0.797              1.391              0.839
 Vibration     8          0.847              1.269              0.679
 Vibration     9          0.874              1.208              0.612
 Vibration    10          0.922              1.104              0.511

 Optimization completed.
    -- Stationary point found.
 Normal termination of Gaussian 16 at Wed Feb 21 18:30:30 2024.
