 Gaussian 16, Revision A.03,
 Gaussian 16:  EM64M-G16RevA.03 25-Dec-2016

 ---------------------
 # freq b3lyp/6-31g(d)
 ---------------------

 ---------
 good luck
 ---------
 Symbolic Z-matrix:
 Charge =  0 Multiplicity = 1

                         Standard orientation:
 ---------------------------------------------------------------------
 Center     Atomic      Atomic             Coordinates (Angstroms)
 Number     Number       Type             X           Y           Z
 ---------------------------------------------------------------------
      1          8           0        3.362817   -0.806892   -0.491870
      2          6           0        2.346059   -0.366496    0.010502
      3          6           0        1.148353   -1.247450    0.340389
      4          6           0       -0.179061   -0.663310   -0.190689
      5          6           0       -1.381609   -1.532935    0.213984
      6          6           0       -2.708286   -0.953924   -0.298978
      7          6           0       -2.895783    0.500805    0.155998
      8          6           0       -1.697791    1.372328   -0.249272
      9          6           0       -0.364235    0.801947    0.264704
     10          6           0        0.833796    1.661525   -0.169323
     11          6           0        2.173914    1.107289    0.354521
     12          1           0        1.335249   -2.251426   -0.053986
     13          1           0        1.082805   -1.328957    1.437358
     14          1           0       -0.125011   -0.657658   -1.292231
     15          1           0       -1.241654   -2.556207   -0.158789
     16          1           0       -1.415379   -1.604089    1.312138
     17          1           0       -3.547035   -1.572370    0.044649
     18          1           0       -2.720616   -0.994506   -1.398074
     19          1           0       -3.008943    0.526357    1.249922
     20          1           0       -3.821970    0.914708   -0.262289
     21          1           0       -1.655473    1.443797   -1.346884
     22          1           0       -1.829405    2.397232    0.122598
     23          1           0       -0.401045    0.802052    1.368160
     24          1           0        0.702813    2.694744    0.176800
     25          1           0        0.865332    1.704144   -1.267645
     26          1           0        2.194377    1.197737    1.451649
     27          1           0        3.031277    1.660906   -0.039432
 ---------------------------------------------------------------------

 SCF Done:  E(RB3LYP) =  -465.944657593     A.U. after   13 cycles

 The electronic state is 1-A.
 Alpha  occ. eigenvalues --  -19.13062 -10.26678 -10.19561 -10.19237 -10.19138
 Alpha  occ. eigenvalues --  -10.18911 -10.18726 -10.18415 -10.18381 -10.18320
 Alpha  occ. eigenvalues --  -10.18299  -1.02935  -0.85171  -0.79579  -0.76850
 Alpha  occ. eigenvalues --   -0.73223  -0.70774  -0.63467  -0.60282  -0.59190
 Alpha  occ. eigenvalues --   -0.56075  -0.52383  -0.47302  -0.46582  -0.45782
 Alpha  occ. eigenvalues --   -0.44503  -0.43510  -0.43021  -0.42379  -0.40142
 Alpha  occ. eigenvalues --   -0.38661  -0.37484  -0.36458  -0.36022  -0.35403
 Alpha  occ. eigenvalues --   -0.34311  -0.33988  -0.33027  -0.32090  -0.29780
 Alpha  occ. eigenvalues --   -0.29660  -0.23270
 Alpha virt. eigenvalues --   -0.01031   0.08534   0.08797   0.10344   0.10837
 Alpha virt. eigenvalues --    0.13385   0.14234   0.15249   0.15728   0.15940
 Alpha virt. eigenvalues --    0.16911   0.16995   0.17386   0.17760   0.18426

 Mulliken charges:
               1
     1  O   -0.448348
     2  C    0.450346
     3  C   -0.348375
     4  C   -0.092453
     5  C   -0.259833
     6  C   -0.261738
     7  C   -0.260704
     8  C   -0.262596
     9  C   -0.080954
    10  C   -0.275757
    11  C   -0.346398
    12  H    0.159361
    13  H    0.148372
    14  H    0.125201
    15  H    0.134411
    16  H    0.126093
    17  H    0.133727
    18  H    0.130904
    19  H    0.128882
    20  H    0.133378
    21  H    0.128329
    22  H    0.130713
    23  H    0.112700
    24  H    0.139205
    25  H    0.140951
    26  H    0.152567
    27  H    0.162014
 Sum of Mulliken charges =  -0.00000

 Dipole moment (field-independent basis, Debye):
    X=             -2.8546    Y=              1.0997    Z=              1.0767  Tot=              3.2430
 Quadrupole moment (field-independent basis, Debye-Ang):
   XX=            -80.5658   YY=            -67.4959   ZZ=            -66.9449
   XY=              4.6757   XZ=              3.7477   YZ=             -0.6453

  Exact polarizability: 118.521  -0.263 101.037  -2.205   1.062  84.055
 Approx polarizability: 150.570  -5.134 139.021  -8.190   3.816 139.422

                      1                      2                      3
                      A                      A                      A
 Frequencies --     70.2324               114.2787               167.8468
 Red. masses --      5.2584                 2.6457                 2.5579
 Frc consts  --      0.0153                 0.0204                 0.0425
 IR Inten    --      3.1652                 0.8663                 0.3216

                      4                      5                      6
                      A                      A                      A
 Frequencies --    211.2101               275.8774               324.2144
 Red. masses --      2.0848                 3.3376                 1.7124
 Frc consts  --      0.0548                 0.1497                 0.1061
 IR Inten    --      0.5039                 0.5111                 0.0790

                      7                      8                      9
                      A                      A                      A
 Frequencies --    341.5878               367.6619               398.4049
 Red. masses --      1.9709                 3.6956                 3.7452
 Frc consts  --      0.1355                 0.2943                 0.3503
 IR Inten    --      0.0240                 0.9968                 1.4883

                     10                     11                     12
                      A                      A                      A
 Frequencies --    440.3672               467.2481               486.6278
 Red. masses --      3.1341                 2.8049                 2.2436
 Frc consts  --      0.3581                 0.3608                 0.3130
 IR Inten    --      1.2726                 2.6903                 0.6863

                     13                     14                     15
                      A                      A                      A
 Frequencies --    512.5995               556.2276               686.7259
 Red. masses --      2.4080                 1.9357                 3.3627
 Frc consts  --      0.3728                 0.3529                 0.9343
 IR Inten    --      5.1962                 3.1823                 1.3172

                     16                     17                     18
                      A                      A                      A
 Frequencies --    750.6715               787.4595               830.4024
 Red. masses --      2.2349                 2.0670                 2.3397
 Frc consts  --      0.7420                 0.7552                 0.9506
 IR Inten    --      1.6571                 2.7908                 0.5618

                     19                     20                     21
                      A                      A                      A
 Frequencies --    854.1851               864.7075               872.5094
 Red. masses --      1.5900                 2.2915                 1.6499
 Frc consts  --      0.6835                 1.0095                 0.7400
 IR Inten    --      0.2425                 2.4391                 1.3567

                     22                     23                     24
                      A                      A                      A
 Frequencies --    922.4424               941.3944               984.0131
 Red. masses --      2.3622                 1.4499                 1.9619
 Frc consts  --      1.1843                 0.7571                 1.1192
 IR Inten    --      1.3838                 2.2032                 5.2508

                     25                     26                     27
                      A                      A                      A
 Frequencies --    986.3683              1006.3603              1044.0708
 Red. masses --      2.0904                 1.6489                 2.1366
 Frc consts  --      1.1983                 0.9839                 1.3723
 IR Inten    --      0.2922                 1.7510                 2.8726

                     28                     29                     30
                      A                      A                      A
 Frequencies --   1069.3964              1073.8154              1085.0921
 Red. masses --      1.4969                 1.3924                 1.9608
 Frc consts  --      1.0086                 0.9460                 1.3602
 IR Inten    --      1.0345                 0.6499                 2.4029

                     31                     32                     33
                      A                      A                      A
 Frequencies --   1102.3331              1145.6246              1157.0629
 Red. masses --      2.8925                 1.9773                 1.5952
 Frc consts  --      2.0709                 1.5290                 1.2583
 IR Inten    --      2.0752                 7.7039                 1.8449

                     34                     35                     36
                      A                      A                      A
 Frequencies --   1163.1039              1197.5645              1240.0238
 Red. masses --      2.1321                 1.5184                 1.4366
 Frc consts  --      1.6994                 1.2830                 1.3015
 IR Inten    --      2.1899                17.2770                 1.1116

                     37                     38                     39
                      A                      A                      A
 Frequencies --   1249.0529              1276.8431              1293.2914
 Red. masses --      1.7621                 1.4417                 1.2305
 Frc consts  --      1.6197                 1.3849                 1.2127
 IR Inten    --     25.8255                 7.7710                 0.3781

                     40                     41                     42
                      A                      A                      A
 Frequencies --   1298.8046              1314.2988              1333.1936
 Red. masses --      1.3730                 1.3980                 1.2465
 Frc consts  --      1.3646                 1.4228                 1.3054
 IR Inten    --      2.4833                 5.3696                 1.0739

                     43                     44                     45
                      A                      A                      A
 Frequencies --   1345.9391              1360.2985              1369.4792
 Red. masses --      1.3652                 1.3317                 1.3431
 Frc consts  --      1.4572                 1.4518                 1.4842
 IR Inten    --      1.4754                10.4838                 6.1117

                     46                     47                     48
                      A                      A                      A
 Frequencies --   1385.2526              1394.0693              1398.1097
 Red. masses --      1.3859                 1.3667                 1.4606
 Frc consts  --      1.5669                 1.5650                 1.6821
 IR Inten    --      1.0558                 0.8839                 4.0214

                     49                     50                     51
                      A                      A                      A
 Frequencies --   1404.2086              1412.2671              1414.4651
 Red. masses --      1.5045                 1.6525                 1.4748
 Frc consts  --      1.7479                 1.9419                 1.7384
 IR Inten    --      2.2409                 3.3464                 0.3510

                     52                     53                     54
                      A                      A                      A
 Frequencies --   1490.4019              1500.2852              1513.0305
 Red. masses --      1.0964                 1.0872                 1.0920
 Frc consts  --      1.4349                 1.4418                 1.4729
 IR Inten    --      5.0612                 6.9400                 0.4476

                     55                     56                     57
                      A                      A                      A
 Frequencies --   1516.2189              1518.9300              1526.1302
 Red. masses --      1.0942                 1.0830                 1.0911
 Frc consts  --      1.4821                 1.4722                 1.4973
 IR Inten    --      1.4993                 7.8114                 5.0369

                     58                     59                     60
                      A                      A                      A
 Frequencies --   1533.0812              1817.5331              2974.0668
 Red. masses --      1.0990                11.0040                 1.0803
 Frc consts  --      1.5218                21.4173                 5.6300
 IR Inten    --      0.4082               208.3141                 5.2285

                     61                     62                     63
                      A                      A                      A
 Frequencies --   2989.6934              3011.2260              3016.6948
 Red. masses --      1.0816                 1.0680                 1.0659
 Frc consts  --      5.6959                 5.7056                 5.7149
 IR Inten    --     10.0049                 1.1313                 2.2449

                     64                     65                     66
                      A                      A                      A
 Frequencies --   3018.0491              3022.3818              3022.4871
 Red. masses --      1.0680                 1.0691                 1.0688
 Frc consts  --      5.7313                 5.7540                 5.7529
 IR Inten    --     35.8011                13.9130                16.1310

                     67                     68                     69
                      A                      A                      A
 Frequencies --   3027.6056              3032.6223              3062.4198
 Red. masses --      1.0613                 1.0618                 1.0981
 Frc consts  --      5.7318                 5.7536                 6.0675
 IR Inten    --     27.9789                80.9005                29.8753

                     70                     71                     72
                      A                      A                      A
 Frequencies --   3065.4565              3072.1975              3073.7799
 Red. masses --      1.0973                 1.0938                 1.1009
 Frc consts  --      6.0753                 6.0825                 6.1286
 IR Inten    --     34.9829                62.8317                46.7441

                     73                     74                     75
                      A                      A                      A
 Frequencies --   3077.6284              3107.7570              3117.1243
 Red. masses --      1.1042                 1.0940                 1.0944
 Frc consts  --      6.1622                 6.2252                 6.2652
 IR Inten    --     91.3759                22.6359                22.0603

 - Thermochemistry -
 -------------------
 Temperature   298.150 Kelvin.  Pressure   1.00000 Atm.
 Atom     1 has atomic number  8 and mass  15.99491

 Molecular mass:   152.12012 amu.
 Principal axes and moments of inertia in atomic units:
                           1         2         3
     Eigenvalues --   813.745582411.330063027.60211
           X            0.99982   0.01791   0.00682
           Y           -0.01786   0.99981  -0.00796
           Z           -0.00696   0.00784   0.99995
 This molecule is an asymmetric top.
 Rotational symmetry number  1.
 Warning -- assumption of classical behavior for rotation
           may cause significant error
 Rotational temperatures (Kelvin)      0.10644     0.03592     0.02861
 Rotational constants (GHZ):           2.21782     0.74844     0.59610
 Zero-point vibrational energy     645122.7 (Joules/Mol)
                                  154.18802 (Kcal/Mol)
 Warning -- explicit consideration of  14 degrees of freedom as
           vibrations may cause significant error
 Vibrational temperatures:    101.05   164.42   241.49   303.88   396.93
          (Kelvin)            466.47   491.47   528.98   573.22   633.59
                              672.27   700.15   737.52   800.29   988.05
                             1080.05  1132.98  1194.76  1228.98  1244.12
                             1255.35  1327.19  1354.46  1415.78  1419.16
                             1447.93  1502.18  1538.62  1544.98  1561.21
                             1586.01  1648.30  1664.76  1673.45  1723.03
                             1784.12  1797.11  1837.09  1860.76  1868.69
                             1890.98  1918.17  1936.51  1957.17  1970.38
                             1993.07  2005.75  2011.57  2020.34  2031.94
                             2035.10  2144.36  2158.58  2176.91  2181.50
                             2185.40  2195.76  2205.76  2615.02  4279.02
                             4301.50  4332.48  4340.35  4342.30  4348.53
                             4348.68  4356.05  4363.27  4406.14  4410.51
                             4420.21  4422.48  4428.02  4471.37  4484.85

 Zero-point correction=                           0.245714 (Hartree/Particle)
 Thermal correction to Energy=                    0.255389
 Thermal correction to Enthalpy=                  0.256333
 Thermal correction to Gibbs Free Energy=         0.210964
 Sum of electronic and zero-point Energies=           -465.698943
 Sum of electronic and thermal Energies=              -465.689269
 Sum of electronic and thermal Enthalpies=            -465.688325
 Sum of electronic and thermal Free Energies=         -465.733694

                     E (Thermal)             CV                S
                      KCal/Mol        Cal/Mol-Kelvin    Cal/Mol-Kelvin
 Total                  160.259             39.487             95.488
 Electronic               0.000              0.000              0.000
 Translational            0.889              2.981             40.968
 Rotational               0.889              2.981             30.164
 Vibrational            158.481             33.526             24.355
 Vibration     1          0.598              1.968              4.147
 Vibration     2          0.607              1.938              3.195
 Vibration     3          0.625              1.882              2.459
 Vibration     4          0.643              1.824              2.033
 Vibration     5          0.678              1.718              1.559
 Vibration     6          0.709              1.627              1.289
 Vibration     7          0.721              1.592              1.205
 Vibration     8          0.740              1.539              1.090
 Vibration     9          0.765              1.474              0.969
 Vibration    10          0.800              1.382              0.825
 Vibration    11          0.825              1.323              0.745
 Vibration    12          0.843              1.280              0.692
 Vibration    13          0.868              1.222              0.627
 Vibration    14          0.912              1.126              0.531

 Normal termination of Gaussian 16 at Thu Feb 22 08:56:41 2024.
