 Gaussian 16, Revision A.03,
 Gaussian 16:  EM64M-G16RevA.03 25-Dec-2016

 ---------------------
 # freq b3lyp/6-31g(d)
 ---------------------

 ---------
 good luck
 ---------
 Symbolic Z-matrix:
 Charge =  0 Multiplicity = 1

                         Standard orientation:
 ---------------------------------------------------------------------
 Center     Atomic      Atomic             Coordinates (Angstroms)
 Number     Number       Type             X           Y           Z
 ---------------------------------------------------------------------
      1          8           0       -4.104063    1.913982   -0.157796
      2          6           0       -3.460196    0.891949   -0.303170
      3          6           0       -1.954066    0.903986   -0.534787
      4          6           0       -1.203623   -0.052348    0.432263
      5          6           0        0.294877   -0.055973    0.179820
      6          6           0        1.186077    0.393966    1.156162
      7          6           0        2.569787    0.400254    0.952078
      8          6           0        3.088533   -0.055890   -0.263223
      9          8           0        4.416593   -0.097918   -0.579643
     10          6           0        5.349052    0.359451    0.385957
     11          6           0        2.210139   -0.512371   -1.257695
     12          6           0        0.840094   -0.508987   -1.034479
     13          6           0       -1.828691   -1.463693    0.379338
     14          6           0       -3.330693   -1.431848    0.695060
     15          6           0       -4.096692   -0.491025   -0.257673
     16          1           0       -1.591661    1.931521   -0.440075
     17          1           0       -1.768777    0.579902   -1.569981
     18          1           0       -1.360884    0.332521    1.450362
     19          1           0        0.797884    0.752990    2.107044
     20          1           0        3.221675    0.760017    1.740047
     21          1           0        6.334130    0.242678   -0.069626
     22          1           0        5.303153   -0.237016    1.307012
     23          1           0        5.187984    1.416983    0.634515
     24          1           0        2.627736   -0.862944   -2.196535
     25          1           0        0.183629   -0.867003   -1.824228
     26          1           0       -1.671962   -1.897132   -0.618996
     27          1           0       -1.307245   -2.118808    1.087431
     28          1           0       -3.754103   -2.441602    0.635724
     29          1           0       -3.477729   -1.092415    1.729788
     30          1           0       -4.063714   -0.909290   -1.275674
     31          1           0       -5.147944   -0.383738    0.024804
 ---------------------------------------------------------------------

 SCF Done:  E(RB3LYP) =  -655.463276918     A.U. after   14 cycles

 The electronic state is 1-A.
 Alpha  occ. eigenvalues --  -19.17878 -19.13150 -10.26745 -10.24724 -10.24274
 Alpha  occ. eigenvalues --  -10.20298 -10.19425 -10.19108 -10.19091 -10.19000
 Alpha  occ. eigenvalues --  -10.18998 -10.18970 -10.18873 -10.18863 -10.18585
 Alpha  occ. eigenvalues --   -1.06453  -1.03014  -0.85889  -0.82936  -0.77458
 Alpha  occ. eigenvalues --   -0.74988  -0.73716  -0.72422  -0.69336  -0.62778
 Alpha  occ. eigenvalues --   -0.61376  -0.59948  -0.56960  -0.53570  -0.52782
 Alpha  occ. eigenvalues --   -0.48737  -0.47564  -0.46950  -0.46433  -0.45508
 Alpha  occ. eigenvalues --   -0.44843  -0.43635  -0.42559  -0.42288  -0.41857
 Alpha  occ. eigenvalues --   -0.40605  -0.39661  -0.37757  -0.37202  -0.36470
 Alpha  occ. eigenvalues --   -0.35750  -0.35069  -0.33376  -0.33245  -0.32489
 Alpha  occ. eigenvalues --   -0.31991  -0.30902  -0.25160  -0.23556  -0.21483
 Alpha virt. eigenvalues --   -0.01366  -0.00201   0.01386   0.08563   0.09490
 Alpha virt. eigenvalues --    0.09697   0.10615   0.12782   0.13742   0.13929
 Alpha virt. eigenvalues --    0.14588   0.15308   0.15708   0.16065   0.16500

 Mulliken charges:
               1
     1  O   -0.446603
     2  C    0.450216
     3  C   -0.343237
     4  C   -0.193854
     5  C    0.189993
     6  C   -0.207049
     7  C   -0.193434
     8  C    0.374992
     9  O   -0.507154
    10  C   -0.214849
    11  C   -0.173253
    12  C   -0.189414
    13  C   -0.261532
    14  C   -0.274613
    15  C   -0.342217
    16  H    0.167224
    17  H    0.152550
    18  H    0.134216
    19  H    0.126785
    20  H    0.131363
    21  H    0.170085
    22  H    0.151451
    23  H    0.152362
    24  H    0.138062
    25  H    0.124403
    26  H    0.133203
    27  H    0.145901
    28  H    0.144222
    29  H    0.145008
    30  H    0.152257
    31  H    0.162916
 Sum of Mulliken charges =  -0.00000

 Dipole moment (field-independent basis, Debye):
    X=              2.4710    Y=             -2.0973    Z=              0.8625  Tot=              3.3539
 Quadrupole moment (field-independent basis, Debye-Ang):
   XX=            -88.4705   YY=            -95.0977   ZZ=            -84.5731
   XY=             14.8562   XZ=              5.7314   YZ=              2.2996

  Exact polarizability: 199.883   2.964 101.812  -0.334  11.784 116.539
 Approx polarizability: 253.611  -3.294 156.736  -5.426  31.705 201.225

                      1                      2                      3
                      A                      A                      A
 Frequencies --     30.1133                57.0307                70.9202
 Red. masses --      3.8259                 4.7532                 3.5764
 Frc consts  --      0.0020                 0.0091                 0.0106
 IR Inten    --      1.2762                 0.6127                 1.0385

                      4                      5                      6
                      A                      A                      A
 Frequencies --     95.7721               102.1953               173.5126
 Red. masses --      3.5600                 3.5555                 3.4742
 Frc consts  --      0.0192                 0.0219                 0.0616
 IR Inten    --      4.5255                 1.7875                 0.4732

                      7                      8                      9
                      A                      A                      A
 Frequencies --    194.6590               217.4235               257.7827
 Red. masses --      2.9332                 3.7417                 1.5868
 Frc consts  --      0.0655                 0.1042                 0.0621
 IR Inten    --      0.6684                 0.3386                 0.5541

                     10                     11                     12
                      A                      A                      A
 Frequencies --    262.9586               311.8000               394.4799
 Red. masses --      1.6583                 3.0325                 5.3679
 Frc consts  --      0.0676                 0.1737                 0.4922
 IR Inten    --      0.7095                 2.6164                 3.2338

                     13                     14                     15
                      A                      A                      A
 Frequencies --    402.6096               428.4159               445.2827
 Red. masses --      2.9590                 3.2034                 3.3976
 Frc consts  --      0.2826                 0.3464                 0.3969
 IR Inten    --      1.9482                 0.3609                 0.4393

                     16                     17                     18
                      A                      A                      A
 Frequencies --    458.8724               481.2481               509.2639
 Red. masses --      2.9339                 2.1131                 3.2899
 Frc consts  --      0.3640                 0.2883                 0.5027
 IR Inten    --      0.6331                 0.1135                18.2547

                     19                     20                     21
                      A                      A                      A
 Frequencies --    558.9437               579.6359               640.9734
 Red. masses --      2.4140                 4.3163                 4.1601
 Frc consts  --      0.4443                 0.8544                 1.0070
 IR Inten    --      8.5519                 4.7964                 6.4118

                     22                     23                     24
                      A                      A                      A
 Frequencies --    655.8993               735.6806               759.0114
 Red. masses --      6.0154                 4.2759                 1.9841
 Frc consts  --      1.5247                 1.3635                 0.6734
 IR Inten    --      0.8557                 1.7171                 4.9572

                     25                     26                     27
                      A                      A                      A
 Frequencies --    771.1518               824.0678               828.7558
 Red. masses --      4.0810                 1.5828                 2.1902
 Frc consts  --      1.4299                 0.6333                 0.8863
 IR Inten    --      3.8563                10.3106                 1.3964

                     28                     29                     30
                      A                      A                      A
 Frequencies --    847.0811               870.1056               880.8160
 Red. masses --      1.8465                 1.6974                 2.0858
 Frc consts  --      0.7806                 0.7571                 0.9534
 IR Inten    --     34.5945                 0.4225                 1.0636

                     31                     32                     33
                      A                      A                      A
 Frequencies --    896.5048               921.3752               941.4964
 Red. masses --      1.8372                 2.5137                 1.3456
 Frc consts  --      0.8700                 1.2573                 0.7028
 IR Inten    --      7.6835                 2.7678                 0.1506

                     34                     35                     36
                      A                      A                      A
 Frequencies --    959.7659               990.5739              1031.5737
 Red. masses --      1.3076                 2.5683                 2.7685
 Frc consts  --      0.7097                 1.4848                 1.7358
 IR Inten    --      0.0758                 9.8673                 0.4838

                     37                     38                     39
                      A                      A                      A
 Frequencies --   1045.5690              1074.9876              1080.5422
 Red. masses --      1.8897                 1.1905                 5.9548
 Frc consts  --      1.2172                 0.8106                 4.0964
 IR Inten    --      8.2155                11.8772                53.2021

                     40                     41                     42
                      A                      A                      A
 Frequencies --   1089.4900              1120.8387              1148.2411
 Red. masses --      2.8330                 2.0855                 1.3968
 Frc consts  --      1.9812                 1.5436                 1.0850
 IR Inten    --      3.6040                 2.4621                 7.0554

                     43                     44                     45
                      A                      A                      A
 Frequencies --   1185.2588              1210.9200              1213.5457
 Red. masses --      1.2708                 1.5531                 1.2355
 Frc consts  --      1.0518                 1.3417                 1.0720
 IR Inten    --      0.7824                43.1873                 9.9714

                     46                     47                     48
                      A                      A                      A
 Frequencies --   1218.5292              1227.8530              1248.3346
 Red. masses --      1.3945                 2.0218                 1.7479
 Frc consts  --      1.2200                 1.7959                 1.6048
 IR Inten    --     10.6058                 1.1004                42.4624

                     49                     50                     51
                      A                      A                      A
 Frequencies --   1253.5772              1281.3037              1302.1676
 Red. masses --      1.6416                 1.8434                 2.7675
 Frc consts  --      1.5199                 1.7831                 2.7649
 IR Inten    --      5.9355                17.1040               277.7762

                     52                     53                     54
                      A                      A                      A
 Frequencies --   1305.5178              1332.1415              1351.0850
 Red. masses --      1.2959                 1.5782                 1.5750
 Frc consts  --      1.3013                 1.6501                 1.6940
 IR Inten    --     18.7400                 1.6398                25.4686

                     55                     56                     57
                      A                      A                      A
 Frequencies --   1356.2070              1364.2748              1381.4492
 Red. masses --      1.7637                 1.4136                 1.5205
 Frc consts  --      1.9113                 1.5502                 1.7096
 IR Inten    --      4.1761                 8.0041                21.7923

                     58                     59                     60
                      A                      A                      A
 Frequencies --   1392.3019              1412.7893              1472.9339
 Red. masses --      1.5052                 1.7169                 2.5495
 Frc consts  --      1.7192                 2.0191                 3.2589
 IR Inten    --      7.2019                17.9877                 0.6470

                     61                     62                     63
                      A                      A                      A
 Frequencies --   1490.4629              1497.8119              1499.7850
 Red. masses --      1.0996                 1.0893                 1.1934
 Frc consts  --      1.4393                 1.4399                 1.5816
 IR Inten    --      4.0145                 6.8032                17.5670

                     64                     65                     66
                      A                      A                      A
 Frequencies --   1517.8703              1520.7645              1528.3015
 Red. masses --      1.0852                 1.0482                 1.0954
 Frc consts  --      1.4731                 1.4282                 1.5074
 IR Inten    --      6.4565                 5.4167                 2.0273

                     67                     68                     69
                      A                      A                      A
 Frequencies --   1535.0062              1566.2630              1633.3726
 Red. masses --      1.0631                 2.4043                 6.3001
 Frc consts  --      1.4758                 3.4751                 9.9031
 IR Inten    --     45.3542               110.5880                10.2506

                     70                     71                     72
                      A                      A                      A
 Frequencies --   1674.8992              1816.5430              3015.3252
 Red. masses --      5.7875                10.9868                 1.0788
 Frc consts  --      9.5657                21.3606                 5.7790
 IR Inten    --     57.6656               211.6407                 4.0514

                     73                     74                     75
                      A                      A                      A
 Frequencies --   3020.8839              3024.0431              3029.1421
 Red. masses --      1.0712                 1.0349                 1.0671
 Frc consts  --      5.7596                 5.5760                 5.7687
 IR Inten    --      4.4565                58.4670                10.8881

                     76                     77                     78
                      A                      A                      A
 Frequencies --   3034.9421              3040.5913              3082.3699
 Red. masses --      1.0698                 1.0626                 1.1059
 Frc consts  --      5.8057                 5.7882                 6.1909
 IR Inten    --      9.3720                57.9572                23.8811

                     79                     80                     81
                      A                      A                      A
 Frequencies --   3082.5345              3086.7344              3119.1707
 Red. masses --      1.0966                 1.1026                 1.0943
 Frc consts  --      6.1393                 6.1898                 6.2729
 IR Inten    --     60.7428                38.5241                24.0678

                     82                     83                     84
                      A                      A                      A
 Frequencies --   3122.2428              3156.7353              3176.4596
 Red. masses --      1.0954                 1.0996                 1.0891
 Frc consts  --      6.2914                 6.4559                 6.4742
 IR Inten    --     13.0729                28.9996                15.0147

                     85                     86                     87
                      A                      A                      A
 Frequencies --   3179.4245              3213.0545              3223.7604
 Red. masses --      1.0880                 1.0930                 1.0912
 Frc consts  --      6.4799                 6.6484                 6.6813
 IR Inten    --     18.4481                 8.1093                13.1836

 - Thermochemistry -
 -------------------
 Temperature   298.150 Kelvin.  Pressure   1.00000 Atm.
 Atom     1 has atomic number  8 and mass  15.99491

 Molecular mass:   204.11503 amu.
 Principal axes and moments of inertia in atomic units:
                           1         2         3
     Eigenvalues --   998.750187474.595667675.11805
           X            0.99987   0.01525   0.00524
           Y           -0.01545   0.99903   0.04112
           Z           -0.00461  -0.04119   0.99914
 This molecule is an asymmetric top.
 Rotational symmetry number  1.
 Warning -- assumption of classical behavior for rotation
           may cause significant error
 Rotational temperatures (Kelvin)      0.08672     0.01159     0.01129
 Rotational constants (GHZ):           1.80700     0.24145     0.23514
 Zero-point vibrational energy     697100.5 (Joules/Mol)
                                  166.61102 (Kcal/Mol)
 Warning -- explicit consideration of  20 degrees of freedom as
           vibrations may cause significant error
 Vibrational temperatures:     43.33    82.05   102.04   137.79   147.04
          (Kelvin)            249.65   280.07   312.82   370.89   378.34
                              448.61   567.57   579.27   616.39   640.66
                              660.22   692.41   732.72   804.20   833.97
                              922.22   943.69  1058.48  1092.05  1109.52
                             1185.65  1192.39  1218.76  1251.89  1267.30
                             1289.87  1325.65  1354.60  1380.89  1425.21
                             1484.20  1504.34  1546.67  1554.66  1567.53
                             1612.64  1652.06  1705.32  1742.24  1746.02
                             1753.19  1766.61  1796.08  1803.62  1843.51
                             1873.53  1878.35  1916.65  1943.91  1951.28
                             1962.89  1987.60  2003.21  2032.69  2119.22
                             2144.44  2155.02  2157.86  2183.88  2188.04
                             2198.88  2208.53  2253.50  2350.06  2409.81
                             2613.60  4338.38  4346.38  4350.92  4358.26
                             4366.60  4374.73  4434.84  4435.08  4441.12
                             4487.79  4492.21  4541.84  4570.22  4574.48
                             4622.87  4638.27

 Zero-point correction=                           0.265512 (Hartree/Particle)
 Thermal correction to Energy=                    0.279146
 Thermal correction to Enthalpy=                  0.280090
 Thermal correction to Gibbs Free Energy=         0.224167
 Sum of electronic and zero-point Energies=           -655.197765
 Sum of electronic and thermal Energies=              -655.184131
 Sum of electronic and thermal Enthalpies=            -655.183187
 Sum of electronic and thermal Free Energies=         -655.239110

                     E (Thermal)             CV                S
                      KCal/Mol        Cal/Mol-Kelvin    Cal/Mol-Kelvin
 Total                  175.166             52.821            117.700
 Electronic               0.000              0.000              0.000
 Translational            0.889              2.981             41.845
 Rotational               0.889              2.981             32.416
 Vibrational            173.389             46.860             43.439
 Vibration     1          0.594              1.984              5.822
 Vibration     2          0.596              1.975              4.557
 Vibration     3          0.598              1.968              4.128
 Vibration     4          0.603              1.952              3.539
 Vibration     5          0.604              1.947              3.412
 Vibration     6          0.627              1.875              2.397
 Vibration     7          0.635              1.847              2.183
 Vibration     8          0.646              1.815              1.980
 Vibration     9          0.667              1.750              1.677
 Vibration    10          0.670              1.741              1.642
 Vibration    11          0.700              1.651              1.353
 Vibration    12          0.761              1.482              0.983
 Vibration    13          0.768              1.464              0.953
 Vibration    14          0.790              1.408              0.864
 Vibration    15          0.805              1.371              0.810
 Vibration    16          0.817              1.341              0.769
 Vibration    17          0.838              1.292              0.707
 Vibration    18          0.864              1.229              0.635
 Vibration    19          0.915              1.120              0.526
 Vibration    20          0.936              1.075              0.486

 Normal termination of Gaussian 16 at Sat Feb 24 01:15:47 2024.
