 Gaussian 16, Revision A.03,
 Gaussian 16:  EM64M-G16RevA.03 25-Dec-2016

 ---------------------
 # freq b3lyp/6-31g(d)
 ---------------------

 ---------
 good luck
 ---------
 Symbolic Z-matrix:
 Charge =  0 Multiplicity = 1

                         Standard orientation:
 ---------------------------------------------------------------------
 Center     Atomic      Atomic             Coordinates (Angstroms)
 Number     Number       Type             X           Y           Z
 ---------------------------------------------------------------------
      1          8           0        2.630732    2.362777   -0.338816
      2          6           0        2.727093    1.155425   -0.210072
      3          6           0        2.299086    0.185050   -1.307144
      4          6           0        1.446254   -1.007118   -0.805345
      5          6           0       -0.013900   -0.663561   -0.522269
      6          6           0       -0.946795   -1.712935   -0.420950
      7          6           0       -2.287267   -1.477895   -0.155072
      8          6           0       -2.748719   -0.163715    0.018503
      9          8           0       -4.083935   -0.032279    0.275497
     10          6           0       -4.604166    1.274958    0.454079
     11          6           0       -1.844942    0.895689   -0.085161
     12          6           0       -0.494580    0.637965   -0.354375
     13          6           0        2.140752   -1.659109    0.419867
     14          6           0        2.415885   -0.649611    1.540921
     15          6           0        3.300200    0.512317    1.044264
     16          1           0        3.225567   -0.227205   -1.735237
     17          1           0        1.796277    0.747589   -2.098824
     18          1           0        1.442889   -1.756523   -1.608771
     19          1           0       -0.612473   -2.739057   -0.562265
     20          1           0       -3.000803   -2.293117   -0.083880
     21          1           0       -5.671302    1.149290    0.646723
     22          1           0       -4.138615    1.782043    1.309756
     23          1           0       -4.468265    1.890664   -0.445069
     24          1           0       -2.169812    1.922886    0.035604
     25          1           0        0.174783    1.487854   -0.438554
     26          1           0        3.091230   -2.103980    0.089745
     27          1           0        1.522818   -2.481653    0.797799
     28          1           0        2.903425   -1.146093    2.388284
     29          1           0        1.464991   -0.249094    1.914301
     30          1           0        3.434411    1.288624    1.803266
     31          1           0        4.297099    0.119017    0.790186
 ---------------------------------------------------------------------

 SCF Done:  E(RB3LYP) =  -655.461373837     A.U. after   15 cycles

 The electronic state is 1-A.
 Alpha  occ. eigenvalues --  -19.17598 -19.13335 -10.27014 -10.24390 -10.23989
 Alpha  occ. eigenvalues --  -10.20337 -10.19092 -10.19085 -10.19010 -10.18987
 Alpha  occ. eigenvalues --  -10.18853 -10.18743 -10.18582 -10.18459 -10.18307
 Alpha  occ. eigenvalues --   -1.06160  -1.03228  -0.85665  -0.82751  -0.77123
 Alpha  occ. eigenvalues --   -0.74603  -0.73953  -0.72251  -0.69073  -0.63309
 Alpha  occ. eigenvalues --   -0.60417  -0.59893  -0.56855  -0.53456  -0.52336
 Alpha  occ. eigenvalues --   -0.48453  -0.47702  -0.46663  -0.46477  -0.45155
 Alpha  occ. eigenvalues --   -0.44984  -0.43321  -0.42838  -0.41623  -0.41223
 Alpha  occ. eigenvalues --   -0.40360  -0.39789  -0.38769  -0.37231  -0.36010
 Alpha  occ. eigenvalues --   -0.35397  -0.35027  -0.33481  -0.32897  -0.32333
 Alpha  occ. eigenvalues --   -0.31514  -0.30722  -0.24802  -0.23612  -0.21302
 Alpha virt. eigenvalues --   -0.01672   0.00216   0.01500   0.08407   0.09914
 Alpha virt. eigenvalues --    0.10932   0.11475   0.12568   0.13667   0.14358
 Alpha virt. eigenvalues --    0.15241   0.15580   0.15886   0.16361   0.16742

 Mulliken charges:
               1
     1  O   -0.462238
     2  C    0.468350
     3  C   -0.362650
     4  C   -0.179787
     5  C    0.168105
     6  C   -0.188623
     7  C   -0.170167
     8  C    0.375993
     9  O   -0.508547
    10  C   -0.214623
    11  C   -0.201993
    12  C   -0.220409
    13  C   -0.263745
    14  C   -0.275649
    15  C   -0.341685
    16  H    0.156845
    17  H    0.168841
    18  H    0.138558
    19  H    0.123311
    20  H    0.136528
    21  H    0.168825
    22  H    0.152203
    23  H    0.152657
    24  H    0.134043
    25  H    0.156749
    26  H    0.128550
    27  H    0.144598
    28  H    0.142345
    29  H    0.158024
    30  H    0.163153
    31  H    0.152439
 Sum of Mulliken charges =  -0.00000

 Dipole moment (field-independent basis, Debye):
    X=             -0.2053    Y=             -1.6943    Z=              0.5010  Tot=              1.7788
 Quadrupole moment (field-independent basis, Debye-Ang):
   XX=            -80.8431   YY=            -91.6472   ZZ=            -88.9902
   XY=            -14.1098   XZ=             -0.6198   YZ=              2.3960

  Exact polarizability: 177.350  -7.447 138.883  -6.371   2.473  92.398
 Approx polarizability: 239.743  -7.241 236.249 -16.494   4.492 134.612

                      1                      2                      3
                      A                      A                      A
 Frequencies --     37.6897                55.7161                82.2579
 Red. masses --      3.8113                 3.6130                 7.2822
 Frc consts  --      0.0032                 0.0066                 0.0290
 IR Inten    --      2.0669                 1.2377                 5.5620

                      4                      5                      6
                      A                      A                      A
 Frequencies --     93.7128               124.9524               173.4755
 Red. masses --      3.4623                 3.5546                 4.1182
 Frc consts  --      0.0179                 0.0327                 0.0730
 IR Inten    --      0.9531                 2.1947                 0.4269

                      7                      8                      9
                      A                      A                      A
 Frequencies --    195.0928               250.5837               277.3233
 Red. masses --      2.5842                 1.2267                 2.7870
 Frc consts  --      0.0580                 0.0454                 0.1263
 IR Inten    --      0.0641                 0.2047                 3.2931

                     10                     11                     12
                      A                      A                      A
 Frequencies --    290.1959               319.0111               379.6819
 Red. masses --      3.1558                 2.8374                 3.2514
 Frc consts  --      0.1566                 0.1701                 0.2762
 IR Inten    --      1.2553                 2.3234                 0.9513

                     13                     14                     15
                      A                      A                      A
 Frequencies --    423.8408               426.9472               443.1723
 Red. masses --      3.6523                 3.3881                 2.6690
 Frc consts  --      0.3866                 0.3639                 0.3089
 IR Inten    --      0.3482                 0.3448                 2.4066

                     16                     17                     18
                      A                      A                      A
 Frequencies --    475.1878               493.0894               522.5889
 Red. masses --      2.6966                 2.7887                 3.4273
 Frc consts  --      0.3588                 0.3995                 0.5515
 IR Inten    --      6.1448                 4.1635                11.0030

                     19                     20                     21
                      A                      A                      A
 Frequencies --    545.3484               594.5727               648.9295
 Red. masses --      3.1420                 3.6845                 6.3937
 Frc consts  --      0.5506                 0.7674                 1.5863
 IR Inten    --      3.3852                 4.3193                 0.9181

                     22                     23                     24
                      A                      A                      A
 Frequencies --    684.0234               708.6979               744.8622
 Red. masses --      3.1957                 3.6444                 3.9897
 Frc consts  --      0.8810                 1.0784                 1.3042
 IR Inten    --     10.8562                 0.5694                 1.5529

                     25                     26                     27
                      A                      A                      A
 Frequencies --    760.1532               820.0377               831.4114
 Red. masses --      2.1507                 4.1824                 1.3302
 Frc consts  --      0.7322                 1.6571                 0.5418
 IR Inten    --      3.5813                 7.5599                10.8184

                     28                     29                     30
                      A                      A                      A
 Frequencies --    838.6663               857.0726               872.4794
 Red. masses --      1.6770                 2.2795                 1.9795
 Frc consts  --      0.6950                 0.9866                 0.8878
 IR Inten    --     20.7226                11.8565                 4.3456

                     31                     32                     33
                      A                      A                      A
 Frequencies --    909.3800               925.4762               961.8579
 Red. masses --      1.6946                 2.3763                 1.2928
 Frc consts  --      0.8257                 1.1992                 0.7047
 IR Inten    --      2.8467                 6.6330                 0.3418

                     34                     35                     36
                      A                      A                      A
 Frequencies --    963.8249              1003.5298              1030.5312
 Red. masses --      1.3156                 2.5438                 2.6100
 Frc consts  --      0.7201                 1.5094                 1.6331
 IR Inten    --      1.6897                 2.1824                 4.2709

                     37                     38                     39
                      A                      A                      A
 Frequencies --   1032.4287              1078.3639              1080.0668
 Red. masses --      2.0470                 3.6856                 2.2959
 Frc consts  --      1.2855                 2.5252                 1.5780
 IR Inten    --      1.2922                42.4889                14.9900

                     40                     41                     42
                      A                      A                      A
 Frequencies --   1095.5830              1126.3184              1150.5581
 Red. masses --      1.7337                 1.4921                 1.3380
 Frc consts  --      1.2261                 1.1153                 1.0435
 IR Inten    --      6.6541                16.8205                11.6940

                     43                     44                     45
                      A                      A                      A
 Frequencies --   1171.3529              1185.4112              1201.4779
 Red. masses --      1.6365                 1.2710                 2.0199
 Frc consts  --      1.3229                 1.0523                 1.7180
 IR Inten    --      2.5314                 0.7829                 2.4275

                     46                     47                     48
                      A                      A                      A
 Frequencies --   1218.5535              1223.0330              1245.9556
 Red. masses --      1.3691                 1.2216                 1.3692
 Frc consts  --      1.1978                 1.0766                 1.2523
 IR Inten    --      1.7931                51.0027                 6.0251

                     49                     50                     51
                      A                      A                      A
 Frequencies --   1252.1830              1281.1890              1299.0891
 Red. masses --      1.7691                 1.3469                 3.7467
 Frc consts  --      1.6343                 1.3026                 3.7254
 IR Inten    --     29.3562                 4.7854               250.4213

                     52                     53                     54
                      A                      A                      A
 Frequencies --   1316.1601              1346.8209              1355.2522
 Red. masses --      1.4425                 1.8368                 1.6503
 Frc consts  --      1.4722                 1.9631                 1.7859
 IR Inten    --      1.6476                22.9923                11.0692

                     55                     56                     57
                      A                      A                      A
 Frequencies --   1359.1352              1364.1137              1386.0766
 Red. masses --      2.2192                 1.4632                 1.4194
 Frc consts  --      2.4153                 1.6042                 1.6067
 IR Inten    --     36.0848                11.1041                 8.9272

                     58                     59                     60
                      A                      A                      A
 Frequencies --   1396.4822              1410.7278              1469.0891
 Red. masses --      1.5646                 1.5458                 2.6567
 Frc consts  --      1.7978                 1.8125                 3.3782
 IR Inten    --      5.2393                 1.8178                 4.6702

                     61                     62                     63
                      A                      A                      A
 Frequencies --   1490.1363              1497.1769              1500.1615
 Red. masses --      1.1007                 1.0919                 1.1880
 Frc consts  --      1.4401                 1.4420                 1.5752
 IR Inten    --      7.1879                15.3252                13.6943

                     64                     65                     66
                      A                      A                      A
 Frequencies --   1518.1126              1520.6004              1528.4752
 Red. masses --      1.0842                 1.0481                 1.0935
 Frc consts  --      1.4722                 1.4278                 1.5051
 IR Inten    --      6.6911                 5.3954                 5.6278

                     67                     68                     69
                      A                      A                      A
 Frequencies --   1535.2252              1567.7207              1632.2650
 Red. masses --      1.0636                 2.3782                 6.1006
 Frc consts  --      1.4770                 3.4437                 9.5765
 IR Inten    --     41.6538               103.1479                24.1708

                     70                     71                     72
                      A                      A                      A
 Frequencies --   1675.4604              1807.8490              3016.4462
 Red. masses --      5.5789                10.9581                 1.0712
 Frc consts  --      9.2271                21.1013                 5.7426
 IR Inten    --     53.8898               154.6329                 1.1021

                     73                     74                     75
                      A                      A                      A
 Frequencies --   3019.9010              3024.1508              3024.6082
 Red. masses --      1.0740                 1.0690                 1.0353
 Frc consts  --      5.7707                 5.7603                 5.5803
 IR Inten    --     24.4851                19.0875                51.0522

                     76                     77                     78
                      A                      A                      A
 Frequencies --   3036.4235              3052.1478              3083.0651
 Red. masses --      1.0771                 1.0605                 1.1067
 Frc consts  --      5.8510                 5.8205                 6.1977
 IR Inten    --     63.2849                24.1504                43.3038

                     79                     80                     81
                      A                      A                      A
 Frequencies --   3086.8522              3091.8139              3117.4259
 Red. masses --      1.0943                 1.1043                 1.0940
 Frc consts  --      6.1437                 6.2198                 6.2639
 IR Inten    --     31.0394                50.0302                19.3585

                     82                     83                     84
                      A                      A                      A
 Frequencies --   3120.5297              3156.0267              3171.3298
 Red. masses --      1.0937                 1.0997                 1.0884
 Frc consts  --      6.2751                 6.4539                 6.4495
 IR Inten    --     12.9660                28.9071                16.3290

                     85                     86                     87
                      A                      A                      A
 Frequencies --   3211.6593              3213.2215              3227.8592
 Red. masses --      1.0910                 1.0892                 1.0928
 Frc consts  --      6.6303                 6.6259                 6.7082
 IR Inten    --      9.9267                 3.8402                 8.6538

 - Thermochemistry -
 -------------------
 Temperature   298.150 Kelvin.  Pressure   1.00000 Atm.
 Atom     1 has atomic number  8 and mass  15.99491

 Molecular mass:   204.11503 amu.
 Principal axes and moments of inertia in atomic units:
                           1         2         3
     Eigenvalues --  1485.912935496.603606181.09954
           X            0.99968  -0.02535   0.00167
           Y            0.02534   0.99963   0.01023
           Z           -0.00193  -0.01018   0.99995
 This molecule is an asymmetric top.
 Rotational symmetry number  1.
 Warning -- assumption of classical behavior for rotation
           may cause significant error
 Rotational temperatures (Kelvin)      0.05829     0.01576     0.01401
 Rotational constants (GHZ):           1.21457     0.32834     0.29198
 Zero-point vibrational energy     698245.0 (Joules/Mol)
                                  166.88455 (Kcal/Mol)
 Warning -- explicit consideration of  20 degrees of freedom as
           vibrations may cause significant error
 Vibrational temperatures:     54.23    80.16   118.35   134.83   179.78
          (Kelvin)            249.59   280.69   360.53   399.01   417.53
                              458.99   546.28   609.81   614.28   637.63
                              683.69   709.45   751.89   784.63   855.46
                              933.66   984.16  1019.66  1071.69  1093.69
                             1179.85  1196.22  1206.65  1233.14  1255.30
                             1308.40  1331.55  1383.90  1386.73  1443.86
                             1482.70  1485.43  1551.53  1553.98  1576.30
                             1620.52  1655.40  1685.32  1705.54  1728.66
                             1753.23  1759.67  1792.65  1801.61  1843.35
                             1869.10  1893.66  1937.77  1949.91  1955.49
                             1962.66  1994.26  2009.23  2029.72  2113.69
                             2143.97  2154.10  2158.40  2184.23  2187.80
                             2199.13  2208.85  2255.60  2348.47  2410.61
                             2601.09  4339.99  4344.96  4351.08  4351.74
                             4368.74  4391.36  4435.84  4441.29  4448.43
                             4485.28  4489.75  4540.82  4562.84  4620.86
                             4623.11  4644.17

 Zero-point correction=                           0.265947 (Hartree/Particle)
 Thermal correction to Energy=                    0.279356
 Thermal correction to Enthalpy=                  0.280300
 Thermal correction to Gibbs Free Energy=         0.225261
 Sum of electronic and zero-point Energies=           -655.195426
 Sum of electronic and thermal Energies=              -655.182018
 Sum of electronic and thermal Enthalpies=            -655.181073
 Sum of electronic and thermal Free Energies=         -655.236112

                     E (Thermal)             CV                S
                      KCal/Mol        Cal/Mol-Kelvin    Cal/Mol-Kelvin
 Total                  175.299             52.572            115.839
 Electronic               0.000              0.000              0.000
 Translational            0.889              2.981             41.845
 Rotational               0.889              2.981             32.290
 Vibrational            173.521             46.610             41.704
 Vibration     1          0.594              1.982              5.377
 Vibration     2          0.596              1.975              4.603
 Vibration     3          0.600              1.961              3.836
 Vibration     4          0.603              1.954              3.581
 Vibration     5          0.610              1.928              3.022
 Vibration     6          0.627              1.875              2.397
 Vibration     7          0.636              1.847              2.179
 Vibration     8          0.663              1.762              1.726
 Vibration     9          0.678              1.715              1.550
 Vibration    10          0.686              1.692              1.473
 Vibration    11          0.705              1.637              1.315
 Vibration    12          0.750              1.513              1.040
 Vibration    13          0.786              1.418              0.879
 Vibration    14          0.789              1.412              0.869
 Vibration    15          0.803              1.376              0.817
 Vibration    16          0.832              1.305              0.723
 Vibration    17          0.849              1.265              0.676
 Vibration    18          0.878              1.200              0.604
 Vibration    19          0.901              1.150              0.554
 Vibration    20          0.952              1.043              0.459

 Normal termination of Gaussian 16 at Sat Feb 24 01:19:35 2024.
