 Gaussian 16, Revision A.03,
 Gaussian 16:  EM64M-G16RevA.03 25-Dec-2016

 ---------------------
 # freq b3lyp/6-31g(d)
 ---------------------

 ---------
 good luck
 ---------
 Symbolic Z-matrix:
 Charge =  0 Multiplicity = 1

                         Standard orientation:
 ---------------------------------------------------------------------
 Center     Atomic      Atomic             Coordinates (Angstroms)
 Number     Number       Type             X           Y           Z
 ---------------------------------------------------------------------
      1          8           0        2.379387   -0.313039   -0.265833
      2          6           0        1.229160   -0.017293   -0.029049
      3          6           0        0.169278   -0.872280    0.665950
      4          6           0       -0.684043    0.214553    1.358731
      5          6           0       -0.793977   -1.339082   -0.467861
      6          6           0       -1.548570   -0.028860   -0.867372
      7          6           0       -0.926050    1.036580    0.068148
      8          6           0        0.523033    1.304041   -0.392647
      9          1           0        0.587985   -1.677022    1.272248
     10          1           0       -1.606274   -0.184274    1.796027
     11          1           0       -0.139466    0.769872    2.131403
     12          1           0       -1.483583   -2.092264   -0.071720
     13          1           0       -0.256196   -1.797527   -1.303634
     14          1           0       -1.417337    0.225693   -1.924597
     15          1           0       -2.624813   -0.123313   -0.686988
     16          1           0       -1.531442    1.939432    0.184344
     17          1           0        0.986995    2.123767    0.172041
     18          1           0        0.636056    1.533998   -1.457871
 ---------------------------------------------------------------------

 SCF Done:  E(RB3LYP) =  -347.982057239     A.U. after   13 cycles

 The electronic state is 1-A.
 Alpha  occ. eigenvalues --  -19.13319 -10.26724 -10.19881 -10.19469 -10.19449
 Alpha  occ. eigenvalues --  -10.19222 -10.18975 -10.18970  -1.03239  -0.87727
 Alpha  occ. eigenvalues --   -0.74514  -0.72416  -0.69136  -0.59467  -0.56320
 Alpha  occ. eigenvalues --   -0.52612  -0.49634  -0.47156  -0.46360  -0.41209
 Alpha  occ. eigenvalues --   -0.40584  -0.39937  -0.37321  -0.36323  -0.35982
 Alpha  occ. eigenvalues --   -0.34998  -0.33568  -0.32239  -0.31530  -0.23116
 Alpha virt. eigenvalues --   -0.00984   0.07576   0.10958   0.13088   0.14676
 Alpha virt. eigenvalues --    0.14885   0.15550   0.16001   0.16791   0.17019
 Alpha virt. eigenvalues --    0.18181   0.19121   0.20773   0.22041   0.23153

 Mulliken charges:
               1
     1  O   -0.455479
     2  C    0.454556
     3  C   -0.171684
     4  C   -0.284232
     5  C   -0.286609
     6  C   -0.271080
     7  C   -0.117021
     8  C   -0.350513
     9  H    0.140333
    10  H    0.142097
    11  H    0.145121
    12  H    0.151103
    13  H    0.157016
    14  H    0.141810
    15  H    0.142306
    16  H    0.127620
    17  H    0.169208
    18  H    0.165448
 Sum of Mulliken charges =  -0.00000

 Dipole moment (field-independent basis, Debye):
    X=             -2.9757    Y=              0.6507    Z=              0.4764  Tot=              3.0830
 Quadrupole moment (field-independent basis, Debye-Ang):
   XX=            -56.1334   YY=            -46.4104   ZZ=            -46.7560
   XY=              2.0652   XZ=              1.1225   YZ=             -0.2211

  Exact polarizability:  73.697   0.234  67.436  -1.097  -0.765  62.770
 Approx polarizability: 109.661  -2.067  94.629  -4.188  -0.511  91.032

                      1                      2                      3
                      A                      A                      A
 Frequencies --    117.0790               225.3521               372.2895
 Red. masses --      3.7066                 2.0087                 1.9426
 Frc consts  --      0.0299                 0.0601                 0.1586
 IR Inten    --      3.8142                 0.5121                 0.3347

                      4                      5                      6
                      A                      A                      A
 Frequencies --    418.4015               463.3715               519.4819
 Red. masses --      2.4149                 3.0603                 4.2739
 Frc consts  --      0.2491                 0.3871                 0.6795
 IR Inten    --      1.8695                 6.0878                 2.5953

                      7                      8                      9
                      A                      A                      A
 Frequencies --    592.2696               682.7500               763.2774
 Red. masses --      2.4761                 4.0010                 3.8680
 Frc consts  --      0.5117                 1.0989                 1.3277
 IR Inten    --      1.4089                 1.3583                 5.6816

                     10                     11                     12
                      A                      A                      A
 Frequencies --    796.0312               827.5576               861.6448
 Red. masses --      3.1139                 1.4623                 2.2681
 Frc consts  --      1.1626                 0.5901                 0.9922
 IR Inten    --      2.7000                 0.4630                 4.0764

                     13                     14                     15
                      A                      A                      A
 Frequencies --    885.8253               922.0746               934.2927
 Red. masses --      2.6578                 2.9760                 1.7153
 Frc consts  --      1.2287                 1.4908                 0.8822
 IR Inten    --      0.8585                 3.0724                 1.2375

                     16                     17                     18
                      A                      A                      A
 Frequencies --    958.4713               963.1998               971.9106
 Red. masses --      2.3139                 2.0881                 1.7630
 Frc consts  --      1.2525                 1.1414                 0.9812
 IR Inten    --      9.7095                 0.0542                 1.7011

                     19                     20                     21
                      A                      A                      A
 Frequencies --   1038.9801              1067.6822              1092.5922
 Red. masses --      1.5557                 1.6848                 1.4523
 Frc consts  --      0.9894                 1.1316                 1.0214
 IR Inten    --      1.4553                11.7373                12.0215

                     22                     23                     24
                      A                      A                      A
 Frequencies --   1140.5719              1157.6318              1190.5749
 Red. masses --      1.0949                 1.3950                 1.9047
 Frc consts  --      0.8392                 1.1015                 1.5907
 IR Inten    --      1.8381                 8.8713                11.1538

                     25                     26                     27
                      A                      A                      A
 Frequencies --   1201.5047              1236.2830              1271.8496
 Red. masses --      1.4318                 1.4555                 1.4314
 Frc consts  --      1.2179                 1.3107                 1.3642
 IR Inten    --      7.0317                 0.2283                 0.5970

                     28                     29                     30
                      A                      A                      A
 Frequencies --   1282.6254              1303.3362              1319.7121
 Red. masses --      1.5491                 1.3491                 1.6271
 Frc consts  --      1.5016                 1.3503                 1.6696
 IR Inten    --      2.1668                 0.1814                 1.9163

                     31                     32                     33
                      A                      A                      A
 Frequencies --   1346.1084              1352.3132              1360.6763
 Red. masses --      1.6158                 1.5597                 1.4849
 Frc consts  --      1.7251                 1.6805                 1.6198
 IR Inten    --      5.3734                 1.8592                 0.8976

                     34                     35                     36
                      A                      A                      A
 Frequencies --   1480.5729              1522.0072              1526.4358
 Red. masses --      1.0903                 1.0783                 1.0967
 Frc consts  --      1.4081                 1.4717                 1.5056
 IR Inten    --      7.9254                 1.4478                 3.8892

                     37                     38                     39
                      A                      A                      A
 Frequencies --   1548.1993              1851.0178              3053.8364
 Red. masses --      1.1004                12.2683                 1.0635
 Frc consts  --      1.5541                24.7659                 5.8433
 IR Inten    --      0.6648               237.2698                14.1633

                     40                     41                     42
                      A                      A                      A
 Frequencies --   3062.2994              3063.5451              3073.1280
 Red. masses --      1.0593                 1.0595                 1.0618
 Frc consts  --      5.8529                 5.8589                 5.9083
 IR Inten    --     35.5814                22.2671                35.1873

                     43                     44                     45
                      A                      A                      A
 Frequencies --   3098.1904              3105.5232              3109.0313
 Red. masses --      1.1065                 1.1005                 1.1079
 Frc consts  --      6.2577                 6.2534                 6.3094
 IR Inten    --      4.1517                 9.5027                28.1788

                     46                     47                     48
                      A                      A                      A
 Frequencies --   3112.7071              3119.6982              3143.4131
 Red. masses --      1.0887                 1.1056                 1.0892
 Frc consts  --      6.2150                 6.3397                 6.3408
 IR Inten    --     39.1905                49.9774                19.7971

 - Thermochemistry -
 -------------------
 Temperature   298.150 Kelvin.  Pressure   1.00000 Atm.
 Atom     1 has atomic number  8 and mass  15.99491

 Molecular mass:   110.07317 amu.
 Principal axes and moments of inertia in atomic units:
                           1         2         3
     Eigenvalues --   527.28479 864.08207 964.61569
           X            0.99948   0.02982   0.01193
           Y           -0.02975   0.99954  -0.00557
           Z           -0.01209   0.00521   0.99991
 This molecule is an asymmetric top.
 Rotational symmetry number  1.
 Warning -- assumption of classical behavior for rotation
           may cause significant error
 Rotational temperatures (Kelvin)      0.16426     0.10024     0.08979
 Rotational constants (GHZ):           3.42271     2.08862     1.87094
 Zero-point vibrational energy     415746.1 (Joules/Mol)
                                   99.36571 (Kcal/Mol)
 Warning -- explicit consideration of   7 degrees of freedom as
           vibrations may cause significant error
 Vibrational temperatures:    168.45   324.23   535.64   601.99   666.69
          (Kelvin)            747.42   852.14   982.32  1098.19  1145.31
                             1190.67  1239.71  1274.51  1326.66  1344.24
                             1379.03  1385.83  1398.36  1494.86  1536.16
                             1572.00  1641.03  1665.57  1712.97  1728.70
                             1778.74  1829.91  1845.41  1875.21  1898.77
                             1936.75  1945.68  1957.71  2130.21  2189.83
                             2196.20  2227.51  2663.20  4393.79  4405.97
                             4407.76  4421.55  4457.60  4468.16  4473.20
                             4478.49  4488.55  4522.67

 Zero-point correction=                           0.158349 (Hartree/Particle)
 Thermal correction to Energy=                    0.164633
 Thermal correction to Enthalpy=                  0.165577
 Thermal correction to Gibbs Free Energy=         0.128065
 Sum of electronic and zero-point Energies=           -347.823708
 Sum of electronic and thermal Energies=              -347.817424
 Sum of electronic and thermal Enthalpies=            -347.816480
 Sum of electronic and thermal Free Energies=         -347.853992

                     E (Thermal)             CV                S
                      KCal/Mol        Cal/Mol-Kelvin    Cal/Mol-Kelvin
 Total                  103.309             25.627             78.951
 Electronic               0.000              0.000              0.000
 Translational            0.889              2.981             40.004
 Rotational               0.889              2.981             27.577
 Vibrational            101.531             19.666             11.370
 Vibration     1          0.608              1.935              3.148
 Vibration     2          0.650              1.802              1.916
 Vibration     3          0.744              1.529              1.070
 Vibration     4          0.781              1.430              0.897
 Vibration     5          0.821              1.331              0.756
 Vibration     6          0.874              1.207              0.611
 Vibration     7          0.950              1.048              0.463

 Normal termination of Gaussian 16 at Wed Feb 21 18:11:10 2024.
