 Gaussian 16, Revision A.03,
 Gaussian 16:  EM64M-G16RevA.03 25-Dec-2016

 ---------------------
 # freq b3lyp/6-31g(d)
 ---------------------

 ---------
 good luck
 ---------
 Symbolic Z-matrix:
 Charge =  0 Multiplicity = 1

                         Standard orientation:
 ---------------------------------------------------------------------
 Center     Atomic      Atomic             Coordinates (Angstroms)
 Number     Number       Type             X           Y           Z
 ---------------------------------------------------------------------
      1          8           0        0.142196    2.449174   -0.174790
      2          6           0       -0.182998    1.276815   -0.164728
      3          6           0       -1.590488    0.786926    0.140503
      4          6           0       -1.514136   -0.038938    1.450307
      5          6           0       -0.494468   -1.205518    1.286874
      6          6           0        0.075124   -1.206871   -0.148171
      7          6           0       -1.095262   -1.353189   -1.143565
      8          6           0       -2.058584   -0.135544   -1.009491
      9          6           0        0.804755    0.129412   -0.437489
     10          6           0        2.142337    0.360876    0.293036
     11          6           0        3.269321   -0.573611   -0.157801
     12          1           0       -2.251108    1.651147    0.256275
     13          1           0       -1.233657    0.614310    2.283975
     14          1           0       -2.516611   -0.422197    1.676573
     15          1           0       -0.975938   -2.170532    1.484555
     16          1           0        0.317040   -1.112716    2.017181
     17          1           0        0.767569   -2.047793   -0.272233
     18          1           0       -0.706283   -1.425272   -2.166410
     19          1           0       -1.627451   -2.291447   -0.945696
     20          1           0       -3.081884   -0.467522   -0.796989
     21          1           0       -2.105044    0.432822   -1.945528
     22          1           0        1.017340    0.173045   -1.519145
     23          1           0        1.995869    0.265867    1.377361
     24          1           0        2.429292    1.403181    0.116534
     25          1           0        3.040697   -1.626044    0.046778
     26          1           0        4.203421   -0.334555    0.363027
     27          1           0        3.455571   -0.477835   -1.234789
 ---------------------------------------------------------------------

 SCF Done:  E(RB3LYP) =  -465.931384321     A.U. after   13 cycles

 The electronic state is 1-A.
 Alpha  occ. eigenvalues --  -19.13017 -10.26166 -10.19204 -10.19112 -10.19093
 Alpha  occ. eigenvalues --  -10.19049 -10.19040 -10.18655 -10.18615 -10.18229
 Alpha  occ. eigenvalues --  -10.17587  -1.02880  -0.85936  -0.78718  -0.74606
 Alpha  occ. eigenvalues --   -0.74323  -0.70625  -0.62905  -0.61583  -0.58044
 Alpha  occ. eigenvalues --   -0.56705  -0.50515  -0.49106  -0.46944  -0.46001
 Alpha  occ. eigenvalues --   -0.43673  -0.43031  -0.40862  -0.40246  -0.39475
 Alpha  occ. eigenvalues --   -0.38633  -0.38119  -0.37682  -0.36565  -0.35601
 Alpha  occ. eigenvalues --   -0.34801  -0.33852  -0.32761  -0.31095  -0.30030
 Alpha  occ. eigenvalues --   -0.29493  -0.22845
 Alpha virt. eigenvalues --   -0.00922   0.06645   0.09475   0.10877   0.11072
 Alpha virt. eigenvalues --    0.13142   0.13868   0.15180   0.15882   0.16121
 Alpha virt. eigenvalues --    0.16408   0.17004   0.18337   0.18515   0.19247

 Mulliken charges:
               1
     1  O   -0.467369
     2  C    0.452160
     3  C   -0.164858
     4  C   -0.285692
     5  C   -0.279070
     6  C   -0.105326
     7  C   -0.275960
     8  C   -0.285877
     9  C   -0.165625
    10  C   -0.260098
    11  C   -0.451630
    12  H    0.139027
    13  H    0.151833
    14  H    0.143481
    15  H    0.137377
    16  H    0.143787
    17  H    0.124309
    18  H    0.137814
    19  H    0.135918
    20  H    0.143183
    21  H    0.148772
    22  H    0.149204
    23  H    0.133827
    24  H    0.165583
    25  H    0.144097
    26  H    0.147520
    27  H    0.143616
 Sum of Mulliken charges =  -0.00000

 Dipole moment (field-independent basis, Debye):
    X=             -0.6888    Y=             -2.8232    Z=              0.0948  Tot=              2.9076
 Quadrupole moment (field-independent basis, Debye-Ang):
   XX=            -65.3245   YY=            -76.6945   ZZ=            -66.2294
   XY=             -0.5836   XZ=             -0.0904   YZ=              0.4081

  Exact polarizability: 109.138   1.272  98.103  -0.472   0.229  89.210
 Approx polarizability: 139.985   5.717 150.279  -1.285  -0.720 131.634

                      1                      2                      3
                      A                      A                      A
 Frequencies --     33.6117                87.3069               146.9068
 Red. masses --      3.0943                 2.0586                 2.6773
 Frc consts  --      0.0021                 0.0092                 0.0340
 IR Inten    --      1.0769                 0.8014                 1.5430

                      4                      5                      6
                      A                      A                      A
 Frequencies --    176.5399               204.3594               255.7020
 Red. masses --      2.9095                 1.3900                 1.8351
 Frc consts  --      0.0534                 0.0342                 0.0707
 IR Inten    --      1.9428                 0.2919                 0.0640

                      7                      8                      9
                      A                      A                      A
 Frequencies --    274.9237               316.0692               357.8539
 Red. masses --      1.6512                 3.8290                 2.5135
 Frc consts  --      0.0735                 0.2254                 0.1896
 IR Inten    --      0.0566                 4.7960                 0.2681

                     10                     11                     12
                      A                      A                      A
 Frequencies --    420.7930               485.2762               503.9124
 Red. masses --      3.1993                 4.0318                 3.9719
 Frc consts  --      0.3338                 0.5594                 0.5942
 IR Inten    --      0.7825                 1.7208                 4.6954

                     13                     14                     15
                      A                      A                      A
 Frequencies --    532.7293               599.8736               691.9781
 Red. masses --      3.6946                 5.1380                 3.9380
 Frc consts  --      0.6178                 1.0893                 1.1110
 IR Inten    --      2.5321                 1.2281                 2.5447

                     16                     17                     18
                      A                      A                      A
 Frequencies --    760.8423               791.2710               813.8134
 Red. masses --      1.5633                 3.0171                 1.6850
 Frc consts  --      0.5332                 1.1130                 0.6575
 IR Inten    --      4.9179                 0.8529                 1.1221

                     19                     20                     21
                      A                      A                      A
 Frequencies --    822.3869               848.5854               869.3639
 Red. masses --      1.6894                 1.7248                 1.9059
 Frc consts  --      0.6732                 0.7318                 0.8487
 IR Inten    --      1.3886                 3.1720                 7.8627

                     22                     23                     24
                      A                      A                      A
 Frequencies --    876.2036               888.2285               960.5937
 Red. masses --      2.4829                 2.1934                 1.7892
 Frc consts  --      1.1231                 1.0196                 0.9727
 IR Inten    --      1.1646                 0.8651                 0.0084

                     25                     26                     27
                      A                      A                      A
 Frequencies --    976.7621               998.0574              1033.3270
 Red. masses --      1.8454                 3.5964                 1.5939
 Frc consts  --      1.0373                 2.1107                 1.0027
 IR Inten    --      2.1821                 0.9592                 0.5521

                     28                     29                     30
                      A                      A                      A
 Frequencies --   1043.3597              1073.0242              1075.2798
 Red. masses --      2.4160                 2.5909                 2.5801
 Frc consts  --      1.5496                 1.7576                 1.7577
 IR Inten    --      4.5230                 8.6213                 0.4184

                     31                     32                     33
                      A                      A                      A
 Frequencies --   1090.0384              1132.2705              1138.9835
 Red. masses --      1.8833                 1.4453                 1.8155
 Frc consts  --      1.3184                 1.0917                 1.3877
 IR Inten    --     19.5760                 1.8631                11.1531

                     34                     35                     36
                      A                      A                      A
 Frequencies --   1141.9564              1171.3556              1212.5595
 Red. masses --      1.6099                 1.0536                 1.5615
 Frc consts  --      1.2369                 0.8518                 1.3527
 IR Inten    --      6.4433                 0.1742                 7.4554

                     37                     38                     39
                      A                      A                      A
 Frequencies --   1252.4240              1261.6016              1273.2641
 Red. masses --      1.5163                 1.2756                 1.1609
 Frc consts  --      1.4013                 1.1962                 1.1089
 IR Inten    --      9.5027                 1.3715                 0.0725

                     40                     41                     42
                      A                      A                      A
 Frequencies --   1281.0428              1296.7335              1332.3768
 Red. masses --      1.3486                 1.4178                 1.5060
 Frc consts  --      1.3040                 1.4047                 1.5752
 IR Inten    --      0.2519                 3.1153                 0.3122

                     43                     44                     45
                      A                      A                      A
 Frequencies --   1333.4358              1352.0556              1360.7965
 Red. masses --      1.4864                 1.3187                 1.4101
 Frc consts  --      1.5572                 1.4203                 1.5385
 IR Inten    --      0.4446                 0.0994                 0.0679

                     46                     47                     48
                      A                      A                      A
 Frequencies --   1370.4829              1385.9206              1390.5134
 Red. masses --      1.5127                 1.5334                 1.4828
 Frc consts  --      1.6739                 1.7354                 1.6892
 IR Inten    --      3.6472                12.7239                 2.3026

                     49                     50                     51
                      A                      A                      A
 Frequencies --   1395.3935              1399.6147              1442.3968
 Red. masses --      1.4681                 1.4217                 1.2423
 Frc consts  --      1.6843                 1.6408                 1.5229
 IR Inten    --      3.0168                 2.9420                 2.9883

                     52                     53                     54
                      A                      A                      A
 Frequencies --   1513.1923              1520.3185              1525.8812
 Red. masses --      1.0742                 1.0691                 1.0691
 Frc consts  --      1.4491                 1.4559                 1.4666
 IR Inten    --      0.3497                 1.1271                 1.3746

                     55                     56                     57
                      A                      A                      A
 Frequencies --   1529.6276              1533.4847              1538.9879
 Red. masses --      1.0522                 1.0766                 1.0741
 Frc consts  --      1.4505                 1.4916                 1.4988
 IR Inten    --      7.0598                 1.8289                 9.4523

                     58                     59                     60
                      A                      A                      A
 Frequencies --   1549.2759              1814.7899              2989.7658
 Red. masses --      1.0921                11.9880                 1.0813
 Frc consts  --      1.5444                23.2621                 5.6945
 IR Inten    --      3.0732               179.8041                12.4494

                     61                     62                     63
                      A                      A                      A
 Frequencies --   3042.6718              3043.3987              3044.8243
 Red. masses --      1.0479                 1.0600                 1.0567
 Frc consts  --      5.7159                 5.7844                 5.7718
 IR Inten    --     18.1885                16.7887                23.2992

                     64                     65                     66
                      A                      A                      A
 Frequencies --   3048.2306              3055.0546              3058.3024
 Red. masses --      1.0624                 1.0645                 1.0643
 Frc consts  --      5.8161                 5.8538                 5.8653
 IR Inten    --      4.2206                53.4878                62.8952

                     67                     68                     69
                      A                      A                      A
 Frequencies --   3070.4184              3074.3540              3080.2735
 Red. masses --      1.0780                 1.1061                 1.1040
 Frc consts  --      5.9878                 6.1594                 6.1715
 IR Inten    --     59.5893                 2.1326                 2.0950

                     70                     71                     72
                      A                      A                      A
 Frequencies --   3090.9919              3097.1380              3100.6112
 Red. masses --      1.0967                 1.1050                 1.0888
 Frc consts  --      6.1733                 6.2449                 6.1673
 IR Inten    --      2.5733                40.6058                35.1814

                     73                     74                     75
                      A                      A                      A
 Frequencies --   3102.8216              3110.8756              3115.9365
 Red. masses --      1.1022                 1.1021                 1.1009
 Frc consts  --      6.2520                 6.2842                 6.2976
 IR Inten    --     54.3984                45.9449                47.5383

 - Thermochemistry -
 -------------------
 Temperature   298.150 Kelvin.  Pressure   1.00000 Atm.
 Atom     1 has atomic number  8 and mass  15.99491

 Molecular mass:   152.12012 amu.
 Principal axes and moments of inertia in atomic units:
                           1         2         3
     Eigenvalues --  1143.706091815.840082184.55550
           X            0.99995  -0.01041  -0.00048
           Y            0.01042   0.99983   0.01551
           Z            0.00032  -0.01552   0.99988
 This molecule is an asymmetric top.
 Rotational symmetry number  1.
 Warning -- assumption of classical behavior for rotation
           may cause significant error
 Rotational temperatures (Kelvin)      0.07573     0.04770     0.03965
 Rotational constants (GHZ):           1.57798     0.99389     0.82614
 Zero-point vibrational energy     643503.5 (Joules/Mol)
                                  153.80102 (Kcal/Mol)
 Warning -- explicit consideration of  14 degrees of freedom as
           vibrations may cause significant error
 Vibrational temperatures:     48.36   125.62   211.37   254.00   294.03
          (Kelvin)            367.90   395.55   454.75   514.87   605.43
                              698.20   725.02   766.48   863.08   995.60
                             1094.68  1138.46  1170.90  1183.23  1220.93
                             1250.82  1260.66  1277.96  1382.08  1405.34
                             1435.98  1486.73  1501.16  1543.84  1547.09
                             1568.32  1629.08  1638.74  1643.02  1685.32
                             1744.60  1801.96  1815.16  1831.94  1843.13
                             1865.71  1916.99  1918.52  1945.31  1957.88
                             1971.82  1994.03  2000.64  2007.66  2013.73
                             2075.29  2177.15  2187.40  2195.40  2200.79
                             2206.34  2214.26  2229.06  2611.08  4301.61
                             4377.73  4378.77  4380.82  4385.72  4395.54
                             4400.22  4417.65  4423.31  4431.83  4447.25
                             4456.09  4461.09  4464.27  4475.86  4483.14

 Zero-point correction=                           0.245098 (Hartree/Particle)
 Thermal correction to Energy=                    0.255368
 Thermal correction to Enthalpy=                  0.256312
 Thermal correction to Gibbs Free Energy=         0.209049
 Sum of electronic and zero-point Energies=           -465.686287
 Sum of electronic and thermal Energies=              -465.676016
 Sum of electronic and thermal Enthalpies=            -465.675072
 Sum of electronic and thermal Free Energies=         -465.722335

                     E (Thermal)             CV                S
                      KCal/Mol        Cal/Mol-Kelvin    Cal/Mol-Kelvin
 Total                  160.246             40.388             99.473
 Electronic               0.000              0.000              0.000
 Translational            0.889              2.981             40.968
 Rotational               0.889              2.981             29.896
 Vibrational            158.468             34.426             28.608
 Vibration     1          0.594              1.983              5.604
 Vibration     2          0.601              1.958              3.720
 Vibration     3          0.617              1.906              2.712
 Vibration     4          0.628              1.871              2.365
 Vibration     5          0.640              1.834              2.093
 Vibration     6          0.666              1.753              1.691
 Vibration     7          0.677              1.720              1.565
 Vibration     8          0.703              1.643              1.330
 Vibration     9          0.733              1.559              1.131
 Vibration    10          0.783              1.425              0.889
 Vibration    11          0.841              1.283              0.696
 Vibration    12          0.859              1.241              0.648
 Vibration    13          0.888              1.178              0.581
 Vibration    14          0.958              1.032              0.450

 Normal termination of Gaussian 16 at Thu Feb 22 10:24:55 2024.
