 Gaussian 16, Revision A.03,
 Gaussian 16:  EM64M-G16RevA.03 25-Dec-2016

 ---------------------
 # freq b3lyp/6-31g(d)
 ---------------------

 ---------
 good luck
 ---------
 Symbolic Z-matrix:
 Charge =  0 Multiplicity = 1

                         Standard orientation:
 ---------------------------------------------------------------------
 Center     Atomic      Atomic             Coordinates (Angstroms)
 Number     Number       Type             X           Y           Z
 ---------------------------------------------------------------------
      1          8           0        1.215528    1.813797   -0.555037
      2          6           0        0.624399    1.026454    0.163042
      3          6           0        1.236657   -0.330046    0.534968
      4          6           0        2.396190   -0.685131   -0.404343
      5          6           0        0.191701   -1.469306    0.649241
      6          6           0       -0.857821   -1.537731   -0.480814
      7          6           0       -2.095912   -0.653000   -0.247985
      8          6           0       -1.855967    0.863070   -0.281489
      9          6           0       -0.763476    1.372376    0.689262
     10          1           0        1.654919   -0.176598    1.544601
     11          1           0        2.933257   -1.564802   -0.033073
     12          1           0        3.096553    0.148534   -0.489740
     13          1           0        2.032325   -0.909943   -1.413601
     14          1           0       -0.334340   -1.404204    1.611086
     15          1           0        0.750091   -2.412871    0.682172
     16          1           0       -1.200484   -2.575867   -0.575729
     17          1           0       -0.392549   -1.286377   -1.445085
     18          1           0       -2.855443   -0.897219   -1.002499
     19          1           0       -2.535103   -0.923261    0.724006
     20          1           0       -2.797024    1.373124   -0.040384
     21          1           0       -1.585726    1.179390   -1.297854
     22          1           0       -0.816702    2.463489    0.753598
     23          1           0       -0.928619    0.956113    1.691514
 ---------------------------------------------------------------------

 SCF Done:  E(RB3LYP) =  -388.513007190     A.U. after   13 cycles

 The electronic state is 1-A.
 Alpha  occ. eigenvalues --  -19.13098 -10.26577 -10.19609 -10.19144 -10.18902
 Alpha  occ. eigenvalues --  -10.18819 -10.18649 -10.18623 -10.17099  -1.03080
 Alpha  occ. eigenvalues --   -0.82587  -0.78236  -0.74929  -0.69455  -0.63019
 Alpha  occ. eigenvalues --   -0.62647  -0.56483  -0.50993  -0.48368  -0.46958
 Alpha  occ. eigenvalues --   -0.45620  -0.43086  -0.42268  -0.41144  -0.40654
 Alpha  occ. eigenvalues --   -0.39004  -0.37385  -0.36829  -0.35186  -0.33549
 Alpha  occ. eigenvalues --   -0.33179  -0.32457  -0.31985  -0.31238  -0.23527
 Alpha virt. eigenvalues --   -0.01104   0.08251   0.09848   0.10967   0.12557
 Alpha virt. eigenvalues --    0.13792   0.14907   0.15412   0.15867   0.17172
 Alpha virt. eigenvalues --    0.17604   0.18394   0.19351   0.19634   0.20007

 Mulliken charges:
               1
     1  O   -0.453071
     2  C    0.450904
     3  C   -0.174383
     4  C   -0.443431
     5  C   -0.271618
     6  C   -0.267986
     7  C   -0.258611
     8  C   -0.271148
     9  C   -0.333731
    10  H    0.151460
    11  H    0.135359
    12  H    0.170284
    13  H    0.149489
    14  H    0.132382
    15  H    0.142119
    16  H    0.137132
    17  H    0.141537
    18  H    0.136151
    19  H    0.130189
    20  H    0.143117
    21  H    0.153416
    22  H    0.162179
    23  H    0.138263
 Sum of Mulliken charges =  -0.00000

 Dipole moment (field-independent basis, Debye):
    X=             -1.5181    Y=             -1.8752    Z=              1.3755  Tot=              2.7773
 Quadrupole moment (field-independent basis, Debye-Ang):
   XX=            -56.7180   YY=            -59.7853   ZZ=            -55.7256
   XY=             -3.7654   XZ=              1.9966   YZ=              2.4459

  Exact polarizability:  89.993  -0.685  84.106  -1.339  -1.859  71.886
 Approx polarizability: 116.080   4.238 117.221  -5.884  -8.436 113.410

                      1                      2                      3
                      A                      A                      A
 Frequencies --     46.7131               146.0604               193.5183
 Red. masses --      4.1661                 2.8737                 1.4874
 Frc consts  --      0.0054                 0.0361                 0.0328
 IR Inten    --      2.0434                 1.4102                 0.2206

                      4                      5                      6
                      A                      A                      A
 Frequencies --    210.6190               264.4204               302.8570
 Red. masses --      1.3897                 2.4271                 2.7309
 Frc consts  --      0.0363                 0.1000                 0.1476
 IR Inten    --      0.1390                 2.1663                 2.1319

                      7                      8                      9
                      A                      A                      A
 Frequencies --    321.1888               359.1750               429.1134
 Red. masses --      2.8104                 2.5330                 2.1545
 Frc consts  --      0.1708                 0.1925                 0.2337
 IR Inten    --      1.6406                 0.9532                 2.4355

                     10                     11                     12
                      A                      A                      A
 Frequencies --    456.8221               504.8865               558.5729
 Red. masses --      2.3394                 1.7769                 3.4897
 Frc consts  --      0.2876                 0.2669                 0.6415
 IR Inten    --      0.7649                 0.7198                 5.4303

                     13                     14                     15
                      A                      A                      A
 Frequencies --    641.8167               760.0752               793.4262
 Red. masses --      3.3313                 2.2114                 2.2609
 Frc consts  --      0.8085                 0.7527                 0.8386
 IR Inten    --      1.7062                 1.2354                 0.5881

                     16                     17                     18
                      A                      A                      A
 Frequencies --    834.0287               854.1130               896.1330
 Red. masses --      2.3407                 1.5180                 2.2386
 Frc consts  --      0.9593                 0.6524                 1.0592
 IR Inten    --      0.4458                 4.3925                 1.1461

                     19                     20                     21
                      A                      A                      A
 Frequencies --    926.3505               952.4396               969.1706
 Red. masses --      1.8423                 1.9984                 1.9546
 Frc consts  --      0.9314                 1.0681                 1.0817
 IR Inten    --      3.8332                 9.3428                 6.5876

                     22                     23                     24
                      A                      A                      A
 Frequencies --   1005.1544              1049.4995              1059.3932
 Red. masses --      1.9756                 1.5377                 1.3863
 Frc consts  --      1.1760                 0.9979                 0.9167
 IR Inten    --      9.3744                 1.9718                 3.4975

                     25                     26                     27
                      A                      A                      A
 Frequencies --   1067.7606              1110.6506              1153.1581
 Red. masses --      1.8176                 2.0059                 2.0171
 Frc consts  --      1.2210                 1.4579                 1.5804
 IR Inten    --      7.1475                 4.3415                11.8117

                     28                     29                     30
                      A                      A                      A
 Frequencies --   1185.6607              1193.8072              1232.7453
 Red. masses --      1.9485                 1.5150                 1.2554
 Frc consts  --      1.6139                 1.2721                 1.1241
 IR Inten    --     31.8969                 1.8891                 7.7822

                     31                     32                     33
                      A                      A                      A
 Frequencies --   1253.7552              1279.4078              1315.9798
 Red. masses --      1.3460                 1.3500                 1.1939
 Frc consts  --      1.2466                 1.3020                 1.2182
 IR Inten    --      0.8966                 4.9895                 0.9064

                     34                     35                     36
                      A                      A                      A
 Frequencies --   1332.6428              1355.2650              1369.6435
 Red. masses --      1.3730                 1.4222                 1.4017
 Frc consts  --      1.4366                 1.5390                 1.5492
 IR Inten    --      0.2414                 2.9222                 5.3469

                     37                     38                     39
                      A                      A                      A
 Frequencies --   1391.9100              1400.7725              1404.8119
 Red. masses --      1.4593                 1.3870                 1.4475
 Frc consts  --      1.6658                 1.6035                 1.6831
 IR Inten    --     10.4291                 7.4361                 0.3655

                     40                     41                     42
                      A                      A                      A
 Frequencies --   1412.6008              1437.6080              1506.5531
 Red. masses --      1.4423                 1.2356                 1.1069
 Frc consts  --      1.6957                 1.5045                 1.4802
 IR Inten    --      0.8079                 8.9027                 6.0801

                     43                     44                     45
                      A                      A                      A
 Frequencies --   1513.3855              1515.9196              1520.7348
 Red. masses --      1.0840                 1.0854                 1.0597
 Frc consts  --      1.4628                 1.4695                 1.4439
 IR Inten    --      0.9031                 5.3629                 4.1332

                     46                     47                     48
                      A                      A                      A
 Frequencies --   1527.7755              1530.3492              1532.7886
 Red. masses --      1.0663                 1.0834                 1.0661
 Frc consts  --      1.4664                 1.4949                 1.4757
 IR Inten    --      4.5037                 3.6732                13.6344

                     49                     50                     51
                      A                      A                      A
 Frequencies --   1796.7866              2985.8797              3019.0995
 Red. masses --     11.2549                 1.0811                 1.0667
 Frc consts  --     21.4084                 5.6790                 5.7286
 IR Inten    --    134.4507                15.3852                18.8839

                     52                     53                     54
                      A                      A                      A
 Frequencies --   3029.3223              3037.1810              3040.5490
 Red. masses --      1.0640                 1.0645                 1.0627
 Frc consts  --      5.7528                 5.7856                 5.7888
 IR Inten    --     11.5897                20.5697                13.8808

                     55                     56                     57
                      A                      A                      A
 Frequencies --   3050.2542              3057.4163              3065.2615
 Red. masses --      1.0640                 1.0395                 1.0940
 Frc consts  --      5.8329                 5.7249                 6.0561
 IR Inten    --     21.1196                15.8874                57.0638

                     58                     59                     60
                      A                      A                      A
 Frequencies --   3070.6763              3076.3043              3083.3654
 Red. masses --      1.1022                 1.0968                 1.1021
 Frc consts  --      6.1234                 6.1157                 6.1732
 IR Inten    --     36.5831                47.1272                65.6442

                     61                     62                     63
                      A                      A                      A
 Frequencies --   3114.3174              3117.6932              3153.8438
 Red. masses --      1.1015                 1.1024                 1.0996
 Frc consts  --      6.2944                 6.3133                 6.4443
 IR Inten    --     18.1162                36.4592                13.9511

 - Thermochemistry -
 -------------------
 Temperature   298.150 Kelvin.  Pressure   1.00000 Atm.
 Atom     1 has atomic number  8 and mass  15.99491

 Molecular mass:   126.10447 amu.
 Principal axes and moments of inertia in atomic units:
                           1         2         3
     Eigenvalues --   844.633991154.763041694.41968
           X            0.99622  -0.08686   0.00071
           Y            0.08684   0.99609   0.01635
           Z           -0.00213  -0.01623   0.99987
 This molecule is an asymmetric top.
 Rotational symmetry number  1.
 Warning -- assumption of classical behavior for rotation
           may cause significant error
 Rotational temperatures (Kelvin)      0.10255     0.07501     0.05112
 Rotational constants (GHZ):           2.13671     1.56287     1.06511
 Zero-point vibrational energy     548961.4 (Joules/Mol)
                                  131.20493 (Kcal/Mol)
 Warning -- explicit consideration of  12 degrees of freedom as
           vibrations may cause significant error
 Vibrational temperatures:     67.21   210.15   278.43   303.03   380.44
          (Kelvin)            435.74   462.12   516.77   617.40   657.27
                              726.42   803.66   923.43  1093.58  1141.56
                             1199.98  1228.88  1289.34  1332.81  1370.35
                             1394.42  1446.19  1510.00  1524.23  1536.27
                             1597.98  1659.14  1705.90  1717.62  1773.65
                             1803.87  1840.78  1893.40  1917.38  1949.92
                             1970.61  2002.65  2015.40  2021.21  2032.42
                             2068.40  2167.59  2177.42  2181.07  2188.00
                             2198.13  2201.83  2205.34  2585.18  4296.01
                             4343.81  4358.52  4369.83  4374.67  4388.64
                             4398.94  4410.23  4418.02  4426.12  4436.28
                             4480.81  4485.67  4537.68

 Zero-point correction=                           0.209088 (Hartree/Particle)
 Thermal correction to Energy=                    0.218084
 Thermal correction to Enthalpy=                  0.219028
 Thermal correction to Gibbs Free Energy=         0.175306
 Sum of electronic and zero-point Energies=           -388.303919
 Sum of electronic and thermal Energies=              -388.294923
 Sum of electronic and thermal Enthalpies=            -388.293979
 Sum of electronic and thermal Free Energies=         -388.337701

                     E (Thermal)             CV                S
                      KCal/Mol        Cal/Mol-Kelvin    Cal/Mol-Kelvin
 Total                  136.850             34.843             92.020
 Electronic               0.000              0.000              0.000
 Translational            0.889              2.981             40.409
 Rotational               0.889              2.981             28.893
 Vibrational            135.072             28.881             22.718
 Vibration     1          0.595              1.979              4.952
 Vibration     2          0.617              1.907              2.723
 Vibration     3          0.635              1.849              2.194
 Vibration     4          0.643              1.825              2.038
 Vibration     5          0.671              1.738              1.632
 Vibration     6          0.694              1.668              1.401
 Vibration     7          0.707              1.633              1.304
 Vibration     8          0.734              1.556              1.126
 Vibration     9          0.790              1.407              0.862
 Vibration    10          0.815              1.346              0.775
 Vibration    11          0.860              1.239              0.646
 Vibration    12          0.914              1.121              0.527

 Normal termination of Gaussian 16 at Wed Feb 21 18:53:05 2024.
