 Gaussian 16, Revision A.03,
 Gaussian 16:  EM64M-G16RevA.03 25-Dec-2016

 ---------------------
 # freq b3lyp/6-31g(d)
 ---------------------

 ---------
 good luck
 ---------
 Symbolic Z-matrix:
 Charge =  0 Multiplicity = 1

                         Standard orientation:
 ---------------------------------------------------------------------
 Center     Atomic      Atomic             Coordinates (Angstroms)
 Number     Number       Type             X           Y           Z
 ---------------------------------------------------------------------
      1          8           0       -1.340968    1.733780   -0.854086
      2          6           0       -0.759769    0.903287   -0.177379
      3          6           0       -1.153985   -0.575005   -0.283494
      4          6           0       -2.431000   -0.794124    0.555009
      5          6           0       -0.058055   -1.589905    0.087321
      6          6           0        1.311473   -1.371749   -0.586512
      7          6           0        2.227646   -0.364591    0.129022
      8          6           0        1.750582    1.094049    0.139374
      9          6           0        0.355393    1.322682    0.770155
     10          1           0       -1.422502   -0.717927   -1.338495
     11          1           0       -2.787516   -1.824794    0.445167
     12          1           0       -2.242502   -0.619276    1.621756
     13          1           0       -3.226232   -0.116001    0.231533
     14          1           0        0.076210   -1.618206    1.178728
     15          1           0       -0.438176   -2.582547   -0.187428
     16          1           0        1.163978   -1.066546   -1.633268
     17          1           0        1.838037   -2.333919   -0.625311
     18          1           0        3.221593   -0.397602   -0.336788
     19          1           0        2.367662   -0.699632    1.167713
     20          1           0        2.478854    1.695131    0.698013
     21          1           0        1.742377    1.495826   -0.883069
     22          1           0        0.214050    2.388763    0.971041
     23          1           0        0.288194    0.778633    1.722121
 ---------------------------------------------------------------------

 SCF Done:  E(RB3LYP) =  -388.513608847     A.U. after   13 cycles

 The electronic state is 1-A.
 Alpha  occ. eigenvalues --  -19.12891 -10.26461 -10.19378 -10.19227 -10.18830
 Alpha  occ. eigenvalues --  -10.18784 -10.18680 -10.18654 -10.18332  -1.02889
 Alpha  occ. eigenvalues --   -0.82654  -0.78419  -0.75197  -0.69473  -0.63247
 Alpha  occ. eigenvalues --   -0.62472  -0.57010  -0.51507  -0.48255  -0.46891
 Alpha  occ. eigenvalues --   -0.45113  -0.43288  -0.41639  -0.41240  -0.40670
 Alpha  occ. eigenvalues --   -0.39775  -0.38689  -0.36586  -0.35179  -0.34070
 Alpha  occ. eigenvalues --   -0.33235  -0.32624  -0.31856  -0.31254  -0.23304
 Alpha virt. eigenvalues --   -0.01176   0.07746   0.09787   0.11246   0.12973
 Alpha virt. eigenvalues --    0.13762   0.14924   0.15371   0.16030   0.16776
 Alpha virt. eigenvalues --    0.17559   0.17793   0.18210   0.19236   0.19869

 Mulliken charges:
               1
     1  O   -0.456616
     2  C    0.447612
     3  C   -0.151591
     4  C   -0.458046
     5  C   -0.268728
     6  C   -0.266011
     7  C   -0.258088
     8  C   -0.271681
     9  C   -0.339227
    10  H    0.152440
    11  H    0.150162
    12  H    0.143857
    13  H    0.169348
    14  H    0.129686
    15  H    0.138569
    16  H    0.136598
    17  H    0.136219
    18  H    0.136158
    19  H    0.130506
    20  H    0.144466
    21  H    0.150765
    22  H    0.162273
    23  H    0.141328
 Sum of Mulliken charges =  -0.00000

 Dipole moment (field-independent basis, Debye):
    X=              1.4940    Y=             -2.0193    Z=              1.3664  Tot=              2.8595
 Quadrupole moment (field-independent basis, Debye-Ang):
   XX=            -56.8215   YY=            -59.4812   ZZ=            -56.7008
   XY=              4.3326   XZ=             -2.0180   YZ=              3.3027

  Exact polarizability:  90.227   0.567  85.094   1.833  -0.727  72.194
 Approx polarizability: 114.728  -3.803 118.617   6.741  -7.269 113.945

                      1                      2                      3
                      A                      A                      A
 Frequencies --     40.6919               136.7728               206.5900
 Red. masses --      3.8405                 2.9078                 2.1488
 Frc consts  --      0.0037                 0.0320                 0.0540
 IR Inten    --      2.7857                 1.2349                 0.7090

                      4                      5                      6
                      A                      A                      A
 Frequencies --    224.6293               260.8316               273.0347
 Red. masses --      1.5211                 1.5331                 2.4417
 Frc consts  --      0.0452                 0.0615                 0.1072
 IR Inten    --      0.3692                 0.6002                 0.7993

                      7                      8                      9
                      A                      A                      A
 Frequencies --    304.9473               344.2239               410.0693
 Red. masses --      3.3104                 1.9265                 3.1697
 Frc consts  --      0.1814                 0.1345                 0.3140
 IR Inten    --      1.9301                 0.0394                 0.8098

                     10                     11                     12
                      A                      A                      A
 Frequencies --    486.5032               501.5652               510.7332
 Red. masses --      2.1367                 1.7068                 3.4784
 Frc consts  --      0.2980                 0.2530                 0.5346
 IR Inten    --      4.9413                 1.0544                 4.9382

                     13                     14                     15
                      A                      A                      A
 Frequencies --    679.0487               735.0304               797.1993
 Red. masses --      2.9844                 2.8196                 2.3885
 Frc consts  --      0.8108                 0.8975                 0.8943
 IR Inten    --      2.4352                 0.8894                 0.2051

                     16                     17                     18
                      A                      A                      A
 Frequencies --    840.8932               864.8565               895.4970
 Red. masses --      1.7022                 1.6777                 2.3462
 Frc consts  --      0.7092                 0.7393                 1.1085
 IR Inten    --      7.9279                 0.7084                 0.3965

                     19                     20                     21
                      A                      A                      A
 Frequencies --    937.0521               954.5260               971.0494
 Red. masses --      1.4063                 2.2832                 1.9423
 Frc consts  --      0.7275                 1.2257                 1.0791
 IR Inten    --      1.0796                18.1967                 4.0561

                     22                     23                     24
                      A                      A                      A
 Frequencies --   1007.0627              1040.7073              1057.3045
 Red. masses --      2.0005                 1.5028                 1.6065
 Frc consts  --      1.1954                 0.9590                 1.0581
 IR Inten    --      7.3159                 2.4348                 1.9343

                     25                     26                     27
                      A                      A                      A
 Frequencies --   1073.7861              1114.4773              1150.1346
 Red. masses --      2.3295                 2.0470                 1.7397
 Frc consts  --      1.5825                 1.4980                 1.3559
 IR Inten    --      5.4944                 0.0467                11.1199

                     28                     29                     30
                      A                      A                      A
 Frequencies --   1186.9365              1218.4826              1226.8132
 Red. masses --      1.8577                 1.8000                 1.1883
 Frc consts  --      1.5420                 1.5746                 1.0538
 IR Inten    --     13.9614                14.0749                 1.6784

                     31                     32                     33
                      A                      A                      A
 Frequencies --   1275.1337              1298.1963              1316.7391
 Red. masses --      1.4978                 1.2585                 1.2355
 Frc consts  --      1.4349                 1.2497                 1.2621
 IR Inten    --     15.0565                 6.5441                 3.3523

                     34                     35                     36
                      A                      A                      A
 Frequencies --   1327.0028              1361.9775              1376.7915
 Red. masses --      1.2722                 1.3330                 1.4635
 Frc consts  --      1.3200                 1.4569                 1.6345
 IR Inten    --      0.8803                 6.6591                10.2638

                     37                     38                     39
                      A                      A                      A
 Frequencies --   1392.1645              1401.4144              1404.6094
 Red. masses --      1.3390                 1.4268                 1.4548
 Frc consts  --      1.5290                 1.6510                 1.6911
 IR Inten    --      7.2189                 0.8369                 4.7289

                     40                     41                     42
                      A                      A                      A
 Frequencies --   1413.0325              1431.4186              1504.6493
 Red. masses --      1.4420                 1.2239                 1.1093
 Frc consts  --      1.6964                 1.4775                 1.4797
 IR Inten    --      1.2647                 3.3087                 5.9513

                     43                     44                     45
                      A                      A                      A
 Frequencies --   1512.8735              1516.0425              1522.6134
 Red. masses --      1.0874                 1.0880                 1.0679
 Frc consts  --      1.4664                 1.4734                 1.4586
 IR Inten    --      1.9896                 3.8695                 4.9342

                     46                     47                     48
                      A                      A                      A
 Frequencies --   1528.3358              1530.3939              1532.2593
 Red. masses --      1.0750                 1.0718                 1.0598
 Frc consts  --      1.4794                 1.4790                 1.4660
 IR Inten    --      6.6029                 7.4881                 7.4478

                     49                     50                     51
                      A                      A                      A
 Frequencies --   1797.5051              3018.4762              3021.7075
 Red. masses --     10.8652                 1.0673                 1.0674
 Frc consts  --     20.6837                 5.7295                 5.7421
 IR Inten    --    143.0837                15.3625                 6.2646

                     52                     53                     54
                      A                      A                      A
 Frequencies --   3025.1053              3037.3373              3042.2871
 Red. masses --      1.0608                 1.0643                 1.0611
 Frc consts  --      5.7196                 5.7852                 5.7864
 IR Inten    --     27.3400                11.3455                 1.5122

                     55                     56                     57
                      A                      A                      A
 Frequencies --   3044.6395              3047.1969              3063.4624
 Red. masses --      1.0684                 1.0559                 1.0955
 Frc consts  --      5.8354                 5.7768                 6.0575
 IR Inten    --      9.7827                40.8666                47.9497

                     58                     59                     60
                      A                      A                      A
 Frequencies --   3067.3453              3069.9118              3080.8174
 Red. masses --      1.1016                 1.0934                 1.1027
 Frc consts  --      6.1065                 6.0715                 6.1665
 IR Inten    --     40.5009                57.7716                58.5308

                     61                     62                     63
                      A                      A                      A
 Frequencies --   3108.2854              3115.7845              3135.6025
 Red. masses --      1.1014                 1.0994                 1.1018
 Frc consts  --      6.2693                 6.2882                 6.3828
 IR Inten    --     39.4456                17.8055                18.9151

 - Thermochemistry -
 -------------------
 Temperature   298.150 Kelvin.  Pressure   1.00000 Atm.
 Atom     1 has atomic number  8 and mass  15.99491

 Molecular mass:   126.10447 amu.
 Principal axes and moments of inertia in atomic units:
                           1         2         3
     Eigenvalues --   839.806771220.380051744.53190
           X            0.99718   0.07364  -0.01475
           Y           -0.07329   0.99704   0.02343
           Z            0.01643  -0.02228   0.99962
 This molecule is an asymmetric top.
 Rotational symmetry number  1.
 Warning -- assumption of classical behavior for rotation
           may cause significant error
 Rotational temperatures (Kelvin)      0.10314     0.07097     0.04965
 Rotational constants (GHZ):           2.14900     1.47884     1.03451
 Zero-point vibrational energy     548921.8 (Joules/Mol)
                                  131.19546 (Kcal/Mol)
 Warning -- explicit consideration of  12 degrees of freedom as
           vibrations may cause significant error
 Vibrational temperatures:     58.55   196.79   297.24   323.19   375.28
          (Kelvin)            392.84   438.75   495.26   590.00   699.97
                              721.64   734.83   977.00  1057.54  1146.99
                             1209.86  1244.34  1288.42  1348.21  1373.35
                             1397.12  1448.94  1497.35  1521.23  1544.94
                             1603.48  1654.79  1707.74  1753.12  1765.11
                             1834.63  1867.81  1894.49  1909.26  1959.58
                             1980.90  2003.01  2016.32  2020.92  2033.04
                             2059.49  2164.85  2176.69  2181.25  2190.70
                             2198.93  2201.90  2204.58  2586.21  4342.91
                             4347.56  4352.45  4370.05  4377.17  4380.56
                             4384.24  4407.64  4413.23  4416.92  4432.61
                             4472.13  4482.92  4511.43

 Zero-point correction=                           0.209073 (Hartree/Particle)
 Thermal correction to Energy=                    0.218144
 Thermal correction to Enthalpy=                  0.219089
 Thermal correction to Gibbs Free Energy=         0.175067
 Sum of electronic and zero-point Energies=           -388.304536
 Sum of electronic and thermal Energies=              -388.295464
 Sum of electronic and thermal Enthalpies=            -388.294520
 Sum of electronic and thermal Free Energies=         -388.338542

                     E (Thermal)             CV                S
                      KCal/Mol        Cal/Mol-Kelvin    Cal/Mol-Kelvin
 Total                  136.888             34.912             92.652
 Electronic               0.000              0.000              0.000
 Translational            0.889              2.981             40.409
 Rotational               0.889              2.981             28.971
 Vibrational            135.110             28.951             23.271
 Vibration     1          0.594              1.981              5.225
 Vibration     2          0.614              1.917              2.849
 Vibration     3          0.641              1.830              2.074
 Vibration     4          0.649              1.804              1.921
 Vibration     5          0.669              1.744              1.656
 Vibration     6          0.676              1.723              1.577
 Vibration     7          0.696              1.664              1.390
 Vibration     8          0.723              1.587              1.193
 Vibration     9          0.774              1.448              0.926
 Vibration    10          0.843              1.280              0.693
 Vibration    11          0.857              1.247              0.654
 Vibration    12          0.866              1.226              0.632

 Normal termination of Gaussian 16 at Wed Feb 21 18:54:44 2024.
