 Gaussian 16, Revision A.03,
 Gaussian 16:  EM64M-G16RevA.03 25-Dec-2016

 ---------------------
 # freq b3lyp/6-31g(d)
 ---------------------

 ---------
 good luck
 ---------
 Symbolic Z-matrix:
 Charge =  0 Multiplicity = 1

                         Standard orientation:
 ---------------------------------------------------------------------
 Center     Atomic      Atomic             Coordinates (Angstroms)
 Number     Number       Type             X           Y           Z
 ---------------------------------------------------------------------
      1          8           0        1.923952    1.518994   -0.295135
      2          6           0        0.898120    0.906147   -0.056884
      3          6           0        0.935511   -0.573212    0.339729
      4          6           0        2.370073   -1.109871    0.279783
      5          6           0       -0.043264   -1.441858   -0.496423
      6          6           0       -1.495124   -1.473254    0.004342
      7          6           0       -2.291695   -0.171692   -0.153194
      8          6           0       -1.680215    1.063380    0.526914
      9          6           0       -0.440634    1.640495   -0.174731
     10          1           0        0.592782   -0.615636    1.387378
     11          1           0        2.736935   -1.127279   -0.752346
     12          1           0        3.052780   -0.479900    0.855204
     13          1           0        2.410662   -2.130227    0.676793
     14          1           0        0.340384   -2.469592   -0.479020
     15          1           0       -0.011467   -1.130929   -1.550986
     16          1           0       -1.490809   -1.765133    1.065302
     17          1           0       -2.029475   -2.272550   -0.526463
     18          1           0       -3.299384   -0.335286    0.251207
     19          1           0       -2.426077    0.046656   -1.223346
     20          1           0       -1.453921    0.839514    1.579139
     21          1           0       -2.439564    1.855260    0.548283
     22          1           0       -0.647677    1.728952   -1.252711
     23          1           0       -0.243418    2.663385    0.165436
 ---------------------------------------------------------------------

 SCF Done:  E(RB3LYP) =  -388.513387724     A.U. after   13 cycles

 The electronic state is 1-A.
 Alpha  occ. eigenvalues --  -19.12919 -10.26641 -10.19580 -10.19069 -10.19039
 Alpha  occ. eigenvalues --  -10.18952 -10.18723 -10.18690 -10.17014  -1.03003
 Alpha  occ. eigenvalues --   -0.82642  -0.78199  -0.75164  -0.69468  -0.62918
 Alpha  occ. eigenvalues --   -0.62611  -0.57157  -0.51189  -0.48098  -0.46956
 Alpha  occ. eigenvalues --   -0.45244  -0.43970  -0.41366  -0.41197  -0.40338
 Alpha  occ. eigenvalues --   -0.39955  -0.37292  -0.36055  -0.35352  -0.34347
 Alpha  occ. eigenvalues --   -0.33037  -0.32459  -0.31980  -0.31401  -0.23460
 Alpha virt. eigenvalues --   -0.00855   0.07697   0.09762   0.11079   0.12089
 Alpha virt. eigenvalues --    0.13364   0.15084   0.15604   0.16359   0.17065
 Alpha virt. eigenvalues --    0.17428   0.17741   0.18279   0.18858   0.20564

 Mulliken charges:
               1
     1  O   -0.454580
     2  C    0.454669
     3  C   -0.171564
     4  C   -0.441219
     5  C   -0.269072
     6  C   -0.262688
     7  C   -0.256355
     8  C   -0.266429
     9  C   -0.352139
    10  H    0.145409
    11  H    0.152720
    12  H    0.162511
    13  H    0.133174
    14  H    0.144751
    15  H    0.137138
    16  H    0.131238
    17  H    0.135046
    18  H    0.135107
    19  H    0.130290
    20  H    0.136090
    21  H    0.141229
    22  H    0.165288
    23  H    0.169385
 Sum of Mulliken charges =  -0.00000

 Dipole moment (field-independent basis, Debye):
    X=             -2.5198    Y=             -1.4165    Z=              0.4586  Tot=              2.9268
 Quadrupole moment (field-independent basis, Debye-Ang):
   XX=            -61.2649   YY=            -57.7730   ZZ=            -55.0433
   XY=             -4.9943   XZ=              1.3174   YZ=              0.7905

  Exact polarizability:  93.177   0.425  85.477  -0.237  -0.738  68.805
 Approx polarizability: 122.259   7.085 115.895  -2.127  -3.313 107.894

                      1                      2                      3
                      A                      A                      A
 Frequencies --     21.6081               115.4407               214.8752
 Red. masses --      3.7650                 2.2754                 1.1572
 Frc consts  --      0.0010                 0.0179                 0.0315
 IR Inten    --      3.3423                 0.2168                 0.1251

                      4                      5                      6
                      A                      A                      A
 Frequencies --    235.1603               260.7517               297.6257
 Red. masses --      1.7908                 2.9030                 2.6369
 Frc consts  --      0.0583                 0.1163                 0.1376
 IR Inten    --      0.0388                 0.9970                 0.5952

                      7                      8                      9
                      A                      A                      A
 Frequencies --    331.5576               349.7471               371.2929
 Red. masses --      3.3446                 1.9118                 2.7684
 Frc consts  --      0.2166                 0.1378                 0.2249
 IR Inten    --      6.7485                 0.2419                 0.3762

                     10                     11                     12
                      A                      A                      A
 Frequencies --    476.3880               499.9354               545.5597
 Red. masses --      2.1022                 2.2414                 2.6399
 Frc consts  --      0.2811                 0.3301                 0.4629
 IR Inten    --      2.6637                 4.9063                 2.5482

                     13                     14                     15
                      A                      A                      A
 Frequencies --    599.7657               714.1241               807.1602
 Red. masses --      2.9953                 2.8978                 2.6358
 Frc consts  --      0.6348                 0.8707                 1.0118
 IR Inten    --      1.1159                 0.8079                 0.8167

                     16                     17                     18
                      A                      A                      A
 Frequencies --    825.3825               833.6645               882.8078
 Red. masses --      1.6003                 1.5649                 2.1949
 Frc consts  --      0.6423                 0.6408                 1.0078
 IR Inten    --      4.4885                 0.5784                 2.5251

                     19                     20                     21
                      A                      A                      A
 Frequencies --    930.7828               952.0471               993.9756
 Red. masses --      1.5350                 2.1383                 1.9633
 Frc consts  --      0.7835                 1.1419                 1.1429
 IR Inten    --      9.0308                11.5865                 0.7016

                     22                     23                     24
                      A                      A                      A
 Frequencies --   1021.4087              1059.5585              1062.7482
 Red. masses --      1.7315                 1.4655                 1.8086
 Frc consts  --      1.0643                 0.9694                 1.2035
 IR Inten    --      6.4853                 0.6290                 9.2091

                     25                     26                     27
                      A                      A                      A
 Frequencies --   1093.2746              1121.1504              1145.2565
 Red. masses --      2.2402                 1.9626                 1.9090
 Frc consts  --      1.5776                 1.4535                 1.4752
 IR Inten    --      5.5420                 5.1039                 1.1383

                     28                     29                     30
                      A                      A                      A
 Frequencies --   1193.0010              1195.8581              1235.0685
 Red. masses --      2.1885                 1.7571                 1.3522
 Frc consts  --      1.8352                 1.4805                 1.2153
 IR Inten    --     33.8453                11.2185                 4.0510

                     31                     32                     33
                      A                      A                      A
 Frequencies --   1248.6672              1303.0441              1313.7346
 Red. masses --      1.2773                 1.2131                 1.2319
 Frc consts  --      1.1734                 1.2136                 1.2526
 IR Inten    --      1.3854                 3.4483                 0.5269

                     34                     35                     36
                      A                      A                      A
 Frequencies --   1332.0291              1364.5524              1382.9995
 Red. masses --      1.1989                 1.4863                 1.4164
 Frc consts  --      1.2533                 1.6305                 1.5962
 IR Inten    --      0.9069                 2.5680                 5.0448

                     37                     38                     39
                      A                      A                      A
 Frequencies --   1397.2301              1402.4466              1412.0274
 Red. masses --      1.4151                 1.5273                 1.4752
 Frc consts  --      1.6277                 1.7699                 1.7329
 IR Inten    --      7.1939                 2.1115                 2.8323

                     40                     41                     42
                      A                      A                      A
 Frequencies --   1417.6535              1439.8581              1478.8565
 Red. masses --      1.4405                 1.2274                 1.0813
 Frc consts  --      1.7057                 1.4992                 1.3933
 IR Inten    --      4.1148                 4.7030                 7.7743

                     43                     44                     45
                      A                      A                      A
 Frequencies --   1513.4694              1514.3401              1520.8918
 Red. masses --      1.0863                 1.0840                 1.0653
 Frc consts  --      1.4660                 1.4646                 1.4518
 IR Inten    --      3.9210                 1.7535                 2.5079

                     46                     47                     48
                      A                      A                      A
 Frequencies --   1521.9412              1526.7584              1530.3414
 Red. masses --      1.0513                 1.0837                 1.0761
 Frc consts  --      1.4347                 1.4883                 1.4848
 IR Inten    --     13.5129                 4.3376                 4.1030

                     49                     50                     51
                      A                      A                      A
 Frequencies --   1792.2868              2990.6457              3016.9545
 Red. masses --     11.8930                 1.0807                 1.0701
 Frc consts  --     22.5091                 5.6949                 5.7387
 IR Inten    --    152.9227                10.1575                15.1440

                     52                     53                     54
                      A                      A                      A
 Frequencies --   3019.4949              3021.1439              3028.1931
 Red. masses --      1.0633                 1.0696                 1.0640
 Frc consts  --      5.7119                 5.7519                 5.7483
 IR Inten    --     21.4828                 0.0691                21.8216

                     55                     56                     57
                      A                      A                      A
 Frequencies --   3032.8551              3058.0184              3061.8905
 Red. masses --      1.0630                 1.0400                 1.0951
 Frc consts  --      5.7611                 5.7299                 6.0488
 IR Inten    --     26.6018                21.0427                44.8695

                     58                     59                     60
                      A                      A                      A
 Frequencies --   3066.3154              3071.2151              3072.6969
 Red. masses --      1.0971                 1.0970                 1.1028
 Frc consts  --      6.0775                 6.0964                 6.1344
 IR Inten    --     65.6316                13.5023                88.5835

                     61                     62                     63
                      A                      A                      A
 Frequencies --   3091.8134              3121.8347              3147.3686
 Red. masses --      1.0916                 1.1028                 1.1006
 Frc consts  --      6.1483                 6.3323                 6.4234
 IR Inten    --     16.5475                29.2687                18.2115

 - Thermochemistry -
 -------------------
 Temperature   298.150 Kelvin.  Pressure   1.00000 Atm.
 Atom     1 has atomic number  8 and mass  15.99491

 Molecular mass:   126.10447 amu.
 Principal axes and moments of inertia in atomic units:
                           1         2         3
     Eigenvalues --   796.003191260.880101882.16876
           X            0.99709  -0.07604   0.00504
           Y            0.07602   0.99710   0.00448
           Z           -0.00537  -0.00408   0.99998
 This molecule is an asymmetric top.
 Rotational symmetry number  1.
 Warning -- assumption of classical behavior for rotation
           may cause significant error
 Rotational temperatures (Kelvin)      0.10881     0.06869     0.04602
 Rotational constants (GHZ):           2.26725     1.43133     0.95886
 Zero-point vibrational energy     547892.9 (Joules/Mol)
                                  130.94955 (Kcal/Mol)
 Warning -- explicit consideration of  13 degrees of freedom as
           vibrations may cause significant error
 Vibrational temperatures:     31.09   166.09   309.16   338.34   375.16
          (Kelvin)            428.22   477.04   503.21   534.21   685.42
                              719.30   784.94   862.93  1027.47  1161.32
                             1187.54  1199.46  1270.16  1339.19  1369.78
                             1430.11  1469.58  1524.47  1529.06  1572.98
                             1613.09  1647.77  1716.46  1720.57  1776.99
                             1796.55  1874.79  1890.17  1916.49  1963.29
                             1989.83  2010.30  2017.81  2031.59  2039.69
                             2071.63  2127.74  2177.54  2178.80  2188.22
                             2189.73  2196.66  2201.82  2578.70  4302.87
                             4340.72  4344.38  4346.75  4356.89  4363.60
                             4399.81  4405.38  4411.74  4418.79  4420.93
                             4448.43  4491.62  4528.36

 Zero-point correction=                           0.208681 (Hartree/Particle)
 Thermal correction to Energy=                    0.217809
 Thermal correction to Enthalpy=                  0.218753
 Thermal correction to Gibbs Free Energy=         0.174053
 Sum of electronic and zero-point Energies=           -388.304706
 Sum of electronic and thermal Energies=              -388.295579
 Sum of electronic and thermal Enthalpies=            -388.294634
 Sum of electronic and thermal Free Energies=         -388.339334

                     E (Thermal)             CV                S
                      KCal/Mol        Cal/Mol-Kelvin    Cal/Mol-Kelvin
 Total                  136.677             35.048             94.079
 Electronic               0.000              0.000              0.000
 Translational            0.889              2.981             40.409
 Rotational               0.889              2.981             29.026
 Vibrational            134.900             29.087             24.644
 Vibration     1          0.593              1.985              6.481
 Vibration     2          0.608              1.937              3.175
 Vibration     3          0.645              1.818              2.002
 Vibration     4          0.655              1.787              1.839
 Vibration     5          0.669              1.745              1.657
 Vibration     6          0.691              1.678              1.430
 Vibration     7          0.714              1.612              1.252
 Vibration     8          0.727              1.576              1.167
 Vibration     9          0.743              1.531              1.074
 Vibration    10          0.833              1.302              0.720
 Vibration    11          0.855              1.250              0.658
 Vibration    12          0.901              1.149              0.553
 Vibration    13          0.958              1.032              0.450

 Normal termination of Gaussian 16 at Wed Feb 21 18:56:23 2024.
