 Gaussian 16, Revision A.03,
 Gaussian 16:  EM64M-G16RevA.03 25-Dec-2016

 ---------------------
 # freq b3lyp/6-31g(d)
 ---------------------

 ---------
 good luck
 ---------
 Symbolic Z-matrix:
 Charge =  0 Multiplicity = 1

                         Standard orientation:
 ---------------------------------------------------------------------
 Center     Atomic      Atomic             Coordinates (Angstroms)
 Number     Number       Type             X           Y           Z
 ---------------------------------------------------------------------
      1          8           0        0.000000    3.401533   -0.429835
      2          6           0        0.000000    2.275863    0.033896
      3          6           0        1.288416    1.526593    0.336301
      4          6           0        1.285812    0.110607   -0.291853
      5          6           0        2.611913   -0.691849   -0.040749
      6          6           0        2.808954   -1.049218    1.446429
      7          6           0        3.823866    0.138742   -0.517084
      8          6           0        2.592026   -1.996612   -0.867580
      9          6           0       -0.000000   -0.631238    0.136835
     10          6           0       -1.285812    0.110606   -0.291852
     11          6           0       -2.611913   -0.691848   -0.040748
     12          6           0       -2.592023   -1.996613   -0.867578
     13          6           0       -2.808956   -1.049215    1.446429
     14          6           0       -3.823866    0.138740   -0.517087
     15          6           0       -1.288416    1.526594    0.336301
     16          1           0        2.116511    2.142815   -0.019494
     17          1           0        1.376829    1.440663    1.430032
     18          1           0        1.229330    0.249521   -1.383652
     19          1           0        2.012943   -1.702457    1.820673
     20          1           0        2.841778   -0.157264    2.082733
     21          1           0        3.758562   -1.580234    1.583881
     22          1           0        4.737561   -0.465831   -0.475035
     23          1           0        3.695026    0.474284   -1.553852
     24          1           0        3.991916    1.024044    0.104475
     25          1           0        3.554020   -2.515526   -0.781095
     26          1           0        2.421351   -1.790214   -1.931666
     27          1           0        1.817938   -2.693964   -0.531091
     28          1           0       -0.000000   -0.754603    1.228372
     29          1           0       -0.000000   -1.636248   -0.291450
     30          1           0       -1.229330    0.249521   -1.383653
     31          1           0       -2.421349   -1.790216   -1.931665
     32          1           0       -3.554019   -2.515529   -0.781092
     33          1           0       -1.817936   -2.693963   -0.531088
     34          1           0       -2.841780   -0.157262    2.082733
     35          1           0       -2.012945   -1.702454    1.820675
     36          1           0       -3.758563   -1.580232    1.583880
     37          1           0       -3.991918    1.024043    0.104472
     38          1           0       -4.737561   -0.465833   -0.475038
     39          1           0       -3.695026    0.474283   -1.553855
     40          1           0       -2.116511    2.142816   -0.019495
     41          1           0       -1.376829    1.440665    1.430032
 ---------------------------------------------------------------------

 SCF Done:  E(RB3LYP) =  -624.390130544     A.U. after   13 cycles

 The electronic state is 1-A.
 Alpha  occ. eigenvalues --  -19.12867 -10.26490 -10.20216 -10.20216 -10.19659
 Alpha  occ. eigenvalues --  -10.19658 -10.18434 -10.18433 -10.18315 -10.17588
 Alpha  occ. eigenvalues --  -10.17588 -10.17517 -10.17517 -10.17366 -10.17366
 Alpha  occ. eigenvalues --   -1.02757  -0.84936  -0.82383  -0.78602  -0.73550
 Alpha  occ. eigenvalues --   -0.72146  -0.68719  -0.68652  -0.68361  -0.68118
 Alpha  occ. eigenvalues --   -0.62940  -0.60261  -0.53820  -0.52611  -0.52359
 Alpha  occ. eigenvalues --   -0.48030  -0.46834  -0.45113  -0.44825  -0.44582
 Alpha  occ. eigenvalues --   -0.44202  -0.43122  -0.42992  -0.42851  -0.40960
 Alpha  occ. eigenvalues --   -0.40814  -0.38960  -0.38355  -0.37810  -0.37168
 Alpha  occ. eigenvalues --   -0.37093  -0.36577  -0.35961  -0.35809  -0.34696
 Alpha  occ. eigenvalues --   -0.34601  -0.33696  -0.33246  -0.32433  -0.31732
 Alpha  occ. eigenvalues --   -0.31420  -0.30028  -0.29707  -0.23117
 Alpha virt. eigenvalues --   -0.00772   0.06879   0.08072   0.09562   0.11165
 Alpha virt. eigenvalues --    0.11788   0.12320   0.12748   0.12980   0.13609
 Alpha virt. eigenvalues --    0.13864   0.14147   0.15197   0.15512   0.15834

 Mulliken charges:
               1
     1  O   -0.449786
     2  C    0.442983
     3  C   -0.359208
     4  C   -0.086332
     5  C    0.104956
     6  C   -0.456829
     7  C   -0.453591
     8  C   -0.452641
     9  C   -0.299941
    10  C   -0.086332
    11  C    0.104957
    12  C   -0.452641
    13  C   -0.456829
    14  C   -0.453591
    15  C   -0.359208
    16  H    0.165283
    17  H    0.149754
    18  H    0.122512
    19  H    0.143102
    20  H    0.141984
    21  H    0.142125
    22  H    0.139437
    23  H    0.141934
    24  H    0.147214
    25  H    0.140721
    26  H    0.139882
    27  H    0.143285
    28  H    0.134971
    29  H    0.144599
    30  H    0.122512
    31  H    0.139882
    32  H    0.140720
    33  H    0.143285
    34  H    0.141985
    35  H    0.143102
    36  H    0.142125
    37  H    0.147214
    38  H    0.139437
    39  H    0.141934
    40  H    0.165283
    41  H    0.149754
 Sum of Mulliken charges =  -0.00000

 Dipole moment (field-independent basis, Debye):
    X=             -0.0000    Y=             -3.0681    Z=              0.9180  Tot=              3.2025
 Quadrupole moment (field-independent basis, Debye-Ang):
   XX=            -93.0903   YY=           -110.6200   ZZ=            -95.6162
   XY=             -0.0000   XZ=             -0.0000   YZ=              3.3655

  Exact polarizability: 166.230   0.000 147.802   0.000  -1.967 124.772
 Approx polarizability: 203.636   0.000 216.047  -0.000  -8.318 196.507

                      1                      2                      3
                      A                      A                      A
 Frequencies --     33.2247                35.7385                79.9902
 Red. masses --      2.5298                 2.7705                 4.9871
 Frc consts  --      0.0016                 0.0021                 0.0188
 IR Inten    --      0.0028                 0.2643                 2.7608

                      4                      5                      6
                      A                      A                      A
 Frequencies --     88.7681               104.9977               125.9691
 Red. masses --      2.6941                 2.5180                 3.0293
 Frc consts  --      0.0125                 0.0164                 0.0283
 IR Inten    --      1.0391                 0.0764                 0.1771

                      7                      8                      9
                      A                      A                      A
 Frequencies --    198.2201               226.8922               243.0715
 Red. masses --      1.6407                 1.2318                 1.6069
 Frc consts  --      0.0380                 0.0374                 0.0559
 IR Inten    --      0.4424                 0.0229                 0.5706

                     10                     11                     12
                      A                      A                      A
 Frequencies --    246.4908               250.5266               265.4272
 Red. masses --      1.3985                 1.6502                 1.0495
 Frc consts  --      0.0501                 0.0610                 0.0436
 IR Inten    --      0.1095                 0.1667                 0.0002

                     13                     14                     15
                      A                      A                      A
 Frequencies --    268.5790               270.9878               271.3480
 Red. masses --      1.8956                 1.0860                 2.1454
 Frc consts  --      0.0806                 0.0470                 0.0931
 IR Inten    --      0.0615                 0.0109                 0.2804

                     16                     17                     18
                      A                      A                      A
 Frequencies --    321.1326               321.1615               339.1175
 Red. masses --      1.7748                 2.0972                 2.0709
 Frc consts  --      0.1078                 0.1274                 0.1403
 IR Inten    --      0.1245                 0.0266                 0.0880

                     19                     20                     21
                      A                      A                      A
 Frequencies --    349.3585               378.1597               387.3829
 Red. masses --      2.5054                 2.4041                 2.1653
 Frc consts  --      0.1802                 0.2026                 0.1914
 IR Inten    --      0.8234                 0.2577                 0.0600

                     22                     23                     24
                      A                      A                      A
 Frequencies --    413.8033               439.0443               440.6312
 Red. masses --      2.2662                 2.5549                 2.9753
 Frc consts  --      0.2286                 0.2902                 0.3404
 IR Inten    --      0.5518                 0.3928                 2.4344

                     25                     26                     27
                      A                      A                      A
 Frequencies --    477.6424               479.5211               524.8683
 Red. masses --      2.3342                 1.8663                 2.3818
 Frc consts  --      0.3138                 0.2528                 0.3866
 IR Inten    --      0.1218                 0.5019                 0.1750

                     28                     29                     30
                      A                      A                      A
 Frequencies --    543.5194               563.2311               635.6686
 Red. masses --      2.9042                 2.7887                 3.9444
 Frc consts  --      0.5055                 0.5212                 0.9391
 IR Inten    --      0.1989                16.2498                 2.3054

                     31                     32                     33
                      A                      A                      A
 Frequencies --    736.4841               782.9800               849.1656
 Red. masses --      4.1171                 3.4105                 1.9914
 Frc consts  --      1.3157                 1.2319                 0.8461
 IR Inten    --      0.7132                 0.4464                 1.0606

                     34                     35                     36
                      A                      A                      A
 Frequencies --    853.0000               878.8430               880.1352
 Red. masses --      2.6346                 2.0790                 1.5666
 Frc consts  --      1.1294                 0.9461                 0.7150
 IR Inten    --      0.4758                 4.2449                 2.8337

                     37                     38                     39
                      A                      A                      A
 Frequencies --    910.6140               937.4269               941.4477
 Red. masses --      3.1979                 1.8985                 1.7479
 Frc consts  --      1.5624                 0.9830                 0.9128
 IR Inten    --      0.2155                 1.6625                 0.3677

                     40                     41                     42
                      A                      A                      A
 Frequencies --    941.8804               942.2569               969.5300
 Red. masses --      1.7317                 1.7556                 1.2099
 Frc consts  --      0.9052                 0.9184                 0.6701
 IR Inten    --      0.0400                 0.3867                 0.0099

                     43                     44                     45
                      A                      A                      A
 Frequencies --    970.0647               971.9493               983.9228
 Red. masses --      1.2059                 2.3086                 1.8497
 Frc consts  --      0.6686                 1.2849                 1.0550
 IR Inten    --      0.0072                 0.9344                 3.1978

                     46                     47                     48
                      A                      A                      A
 Frequencies --   1035.3120              1043.7077              1050.1653
 Red. masses --      1.6293                 1.5596                 1.3669
 Frc consts  --      1.0290                 1.0010                 0.8882
 IR Inten    --      0.3131                 0.6356                 0.1387

                     49                     50                     51
                      A                      A                      A
 Frequencies --   1054.9701              1090.2003              1097.4650
 Red. masses --      1.6397                 1.3887                 1.8172
 Frc consts  --      1.0752                 0.9725                 1.2895
 IR Inten    --      1.6845                10.6366                 0.0276

                     52                     53                     54
                      A                      A                      A
 Frequencies --   1122.2472              1131.2240              1202.5726
 Red. masses --      2.4450                 2.1990                 1.6226
 Frc consts  --      1.8143                 1.6579                 1.3826
 IR Inten    --      3.1634                 2.9889                 0.0016

                     55                     56                     57
                      A                      A                      A
 Frequencies --   1224.3604              1236.2603              1256.1586
 Red. masses --      1.8029                 2.7230                 2.5901
 Frc consts  --      1.5924                 2.4520                 2.4080
 IR Inten    --      2.1021                39.0581                 0.4557

                     58                     59                     60
                      A                      A                      A
 Frequencies --   1264.4185              1269.4599              1272.2158
 Red. masses --      2.4625                 1.5358                 1.7486
 Frc consts  --      2.3195                 1.4583                 1.6675
 IR Inten    --     65.8704                 4.1113                 4.5399

                     61                     62                     63
                      A                      A                      A
 Frequencies --   1275.9982              1302.1288              1307.1899
 Red. masses --      2.6513                 1.7877                 1.6271
 Frc consts  --      2.5433                 1.7858                 1.6381
 IR Inten    --      7.3763                17.0913                14.4622

                     64                     65                     66
                      A                      A                      A
 Frequencies --   1330.5549              1342.4846              1379.0541
 Red. masses --      1.4590                 1.2907                 1.3442
 Frc consts  --      1.5219                 1.3706                 1.5062
 IR Inten    --      3.0291                 1.8003                 7.6046

                     67                     68                     69
                      A                      A                      A
 Frequencies --   1383.5824              1390.1165              1408.1599
 Red. masses --      1.2856                 1.3922                 1.4933
 Frc consts  --      1.4500                 1.5851                 1.7446
 IR Inten    --      0.0008                 5.3208                14.0000

                     70                     71                     72
                      A                      A                      A
 Frequencies --   1429.5350              1430.5679              1430.5908
 Red. masses --      1.2294                 1.2375                 1.2294
 Frc consts  --      1.4802                 1.4922                 1.4824
 IR Inten    --     11.8528                13.0765                 3.3358

                     73                     74                     75
                      A                      A                      A
 Frequencies --   1430.8237              1460.5149              1462.0512
 Red. masses --      1.2318                 1.2202                 1.2253
 Frc consts  --      1.4859                 1.5336                 1.5431
 IR Inten    --      0.0027                10.3668                 3.9520

                     76                     77                     78
                      A                      A                      A
 Frequencies --   1493.6593              1499.6526              1513.4478
 Red. masses --      1.0973                 1.0886                 1.0489
 Frc consts  --      1.4424                 1.4424                 1.4156
 IR Inten    --      2.7340                 2.8721                 0.1135

                     79                     80                     81
                      A                      A                      A
 Frequencies --   1513.9794              1517.7143              1517.9639
 Red. masses --      1.0497                 1.0449                 1.0530
 Frc consts  --      1.4177                 1.4181                 1.4296
 IR Inten    --      0.2522                 0.0017                 3.3966

                     82                     83                     84
                      A                      A                      A
 Frequencies --   1518.8993              1521.5935              1526.9489
 Red. masses --      1.0574                 1.0477                 1.0695
 Frc consts  --      1.4373                 1.4292                 1.4691
 IR Inten    --      0.0294                 0.0303                 0.6505

                     85                     86                     87
                      A                      A                      A
 Frequencies --   1538.9775              1539.8648              1541.7252
 Red. masses --      1.0491                 1.0499                 1.0592
 Frc consts  --      1.4640                 1.4668                 1.4833
 IR Inten    --      1.8372                 8.6790                 3.4598

                     88                     89                     90
                      A                      A                      A
 Frequencies --   1542.0078              1550.4016              1551.6943
 Red. masses --      1.0582                 1.0548                 1.0562
 Frc consts  --      1.4824                 1.4938                 1.4983
 IR Inten    --      4.3800                15.8746                10.2303

                     91                     92                     93
                      A                      A                      A
 Frequencies --   1812.4985              2990.0906              2995.7271
 Red. masses --     10.8297                 1.0826                 1.0812
 Frc consts  --     20.9616                 5.7027                 5.7167
 IR Inten    --    217.3219                 0.0045                26.3803

                     94                     95                     96
                      A                      A                      A
 Frequencies --   3024.2286              3029.8616              3040.1903
 Red. masses --      1.0688                 1.0688                 1.0368
 Frc consts  --      5.7594                 5.7809                 5.6459
 IR Inten    --      0.5698                10.9910                29.4884

                     97                     98                     99
                      A                      A                      A
 Frequencies --   3040.2489              3041.2869              3042.8301
 Red. masses --      1.0364                 1.0435                 1.0357
 Frc consts  --      5.6440                 5.6866                 5.6498
 IR Inten    --     10.7340                22.1540                 4.8943

                    100                    101                    102
                      A                      A                      A
 Frequencies --   3046.3469              3050.0776              3052.6636
 Red. masses --      1.0500                 1.0374                 1.0481
 Frc consts  --      5.7409                 5.6862                 5.7543
 IR Inten    --     53.2124                19.9267                30.3057

                    103                    104                    105
                      A                      A                      A
 Frequencies --   3101.1219              3101.2423              3104.5323
 Red. masses --      1.1023                 1.1023                 1.1018
 Frc consts  --      6.2458                 6.2463                 6.2566
 IR Inten    --      0.1115                 0.0031                 0.0112

                    106                    107                    108
                      A                      A                      A
 Frequencies --   3104.6140              3108.7176              3109.2806
 Red. masses --      1.1012                 1.1005                 1.1007
 Frc consts  --      6.2536                 6.2662                 6.2697
 IR Inten    --     11.1845                69.8943                83.0715

                    109                    110                    111
                      A                      A                      A
 Frequencies --   3110.7005              3114.3253              3117.7957
 Red. masses --      1.1005                 1.1021                 1.1015
 Frc consts  --      6.2740                 6.2978                 6.3084
 IR Inten    --     35.6084                 3.7511                17.0142

                    112                    113                    114
                      A                      A                      A
 Frequencies --   3118.6669              3119.6508              3119.8481
 Red. masses --      1.1006                 1.1001                 1.1004
 Frc consts  --      6.3070                 6.3082                 6.3108
 IR Inten    --     44.2956                62.2818                84.5809

                    115                    116                    117
                      A                      A                      A
 Frequencies --   3132.2933              3139.4144              3140.5156
 Red. masses --      1.0927                 1.0923                 1.0930
 Frc consts  --      6.3165                 6.3426                 6.3513
 IR Inten    --     30.7121                16.1596                18.9438

 - Thermochemistry -
 -------------------
 Temperature   298.150 Kelvin.  Pressure   1.00000 Atm.
 Atom     1 has atomic number  8 and mass  15.99491

 Molecular mass:   210.19837 amu.
 Principal axes and moments of inertia in atomic units:
                           1         2         3
     Eigenvalues --  2262.032234605.931475958.28528
           X            1.00000   0.00000   0.00000
           Y           -0.00000   0.99995   0.01000
           Z           -0.00000  -0.01000   0.99995
 This molecule is an asymmetric top.
 Rotational symmetry number  1.
 Warning -- assumption of classical behavior for rotation
           may cause significant error
 Rotational temperatures (Kelvin)      0.03829     0.01880     0.01454
 Rotational constants (GHZ):           0.79784     0.39183     0.30290
 Zero-point vibrational energy     991617.9 (Joules/Mol)
                                  237.00236 (Kcal/Mol)
 Warning -- explicit consideration of  29 degrees of freedom as
           vibrations may cause significant error
 Vibrational temperatures:     47.80    51.42   115.09   127.72   151.07
          (Kelvin)            181.24   285.19   326.45   349.73   354.65
                              360.45   381.89   386.43   389.89   390.41
                              462.04   462.08   487.91   502.65   544.09
                              557.36   595.37   631.69   633.97   687.22
                              689.92   755.17   782.00   810.36   914.59
                             1059.64  1126.53  1221.76  1227.28  1264.46
                             1266.32  1310.17  1348.75  1354.53  1355.16
                             1355.70  1394.94  1395.71  1398.42  1415.65
                             1489.58  1501.66  1510.95  1517.87  1568.56
                             1579.01  1614.66  1627.58  1730.23  1761.58
                             1778.70  1807.33  1819.22  1826.47  1830.43
                             1835.88  1873.47  1880.75  1914.37  1931.54
                             1984.15  1990.67  2000.07  2026.03  2056.78
                             2058.27  2058.30  2058.64  2101.36  2103.57
                             2149.04  2157.67  2177.51  2178.28  2183.65
                             2184.01  2185.36  2189.23  2196.94  2214.25
                             2215.52  2218.20  2218.61  2230.68  2232.54
                             2607.78  4302.07  4310.18  4351.19  4359.30
                             4374.16  4374.24  4375.73  4377.95  4383.01
                             4388.38  4392.10  4461.82  4462.00  4466.73
                             4466.85  4472.75  4473.56  4475.60  4480.82
                             4485.81  4487.07  4488.48  4488.77  4506.67
                             4516.92  4518.50

 Zero-point correction=                           0.377687 (Hartree/Particle)
 Thermal correction to Energy=                    0.395153
 Thermal correction to Enthalpy=                  0.396097
 Thermal correction to Gibbs Free Energy=         0.333512
 Sum of electronic and zero-point Energies=           -624.012443
 Sum of electronic and thermal Energies=              -623.994978
 Sum of electronic and thermal Enthalpies=            -623.994034
 Sum of electronic and thermal Free Energies=         -624.056618

                     E (Thermal)             CV                S
                      KCal/Mol        Cal/Mol-Kelvin    Cal/Mol-Kelvin
 Total                  247.962             68.200            131.720
 Electronic               0.000              0.000              0.000
 Translational            0.889              2.981             41.932
 Rotational               0.889              2.981             32.496
 Vibrational            246.185             62.238             57.292
 Vibration     1          0.594              1.983              5.627
 Vibration     2          0.594              1.982              5.482
 Vibration     3          0.600              1.963              3.891
 Vibration     4          0.602              1.957              3.687
 Vibration     5          0.605              1.945              3.359
 Vibration     6          0.611              1.927              3.007
 Vibration     7          0.637              1.842              2.150
 Vibration     8          0.651              1.800              1.903
 Vibration     9          0.659              1.774              1.780
 Vibration    10          0.661              1.769              1.756
 Vibration    11          0.663              1.762              1.727
 Vibration    12          0.671              1.736              1.626
 Vibration    13          0.673              1.731              1.605
 Vibration    14          0.675              1.727              1.590
 Vibration    15          0.675              1.726              1.588
 Vibration    16          0.707              1.633              1.304
 Vibration    17          0.707              1.633              1.304
 Vibration    18          0.719              1.597              1.216
 Vibration    19          0.727              1.577              1.169
 Vibration    20          0.748              1.517              1.047
 Vibration    21          0.756              1.497              1.010
 Vibration    22          0.777              1.440              0.913
 Vibration    23          0.799              1.385              0.830
 Vibration    24          0.801              1.382              0.825
 Vibration    25          0.834              1.300              0.716
 Vibration    26          0.836              1.295              0.711
 Vibration    27          0.880              1.195              0.599
 Vibration    28          0.899              1.154              0.558
 Vibration    29          0.919              1.111              0.517

 Normal termination of Gaussian 16 at Sat Feb 24 00:28:18 2024.
