 Gaussian 16, Revision A.03,
 Gaussian 16:  EM64M-G16RevA.03 25-Dec-2016

 ---------------------
 # freq b3lyp/6-31g(d)
 ---------------------

 ---------
 good luck
 ---------
 Symbolic Z-matrix:
 Charge =  0 Multiplicity = 1

                         Standard orientation:
 ---------------------------------------------------------------------
 Center     Atomic      Atomic             Coordinates (Angstroms)
 Number     Number       Type             X           Y           Z
 ---------------------------------------------------------------------
      1          8           0        2.699655   -0.389379   -0.546338
      2          6           0        1.604773   -0.049718   -0.155788
      3          6           0        0.627531   -0.856630    0.699391
      4          6           0       -0.091298    0.269258    1.475964
      5          6           0       -0.500700   -1.314762   -0.271524
      6          6           0       -1.255712    0.011580   -0.631846
      7          6           0       -2.756126   -0.045521   -0.328743
      8          6           0       -0.485450    1.070295    0.209968
      9          6           0        0.897346    1.289644   -0.440504
     10          1           0        1.104162   -1.661486    1.261403
     11          1           0        0.569516    0.826698    2.150133
     12          1           0       -0.949509   -0.093010    2.051660
     13          1           0       -0.109459   -1.837795   -1.150046
     14          1           0       -1.165779   -2.010891    0.253640
     15          1           0       -1.134302    0.236066   -1.699241
     16          1           0       -3.252603    0.892732   -0.603790
     17          1           0       -2.947065   -0.225392    0.736349
     18          1           0       -3.238062   -0.855093   -0.889872
     19          1           0       -1.048168    1.992061    0.383874
     20          1           0        1.456056    2.098600    0.049058
     21          1           0        0.875783    1.507664   -1.513981
 ---------------------------------------------------------------------

 SCF Done:  E(RB3LYP) =  -387.296255506     A.U. after   13 cycles

 The electronic state is 1-A.
 Alpha  occ. eigenvalues --  -19.13300 -10.26698 -10.19659 -10.19596 -10.19411
 Alpha  occ. eigenvalues --  -10.19239 -10.19155 -10.18928 -10.18100  -1.03216
 Alpha  occ. eigenvalues --   -0.87884  -0.76401  -0.74053  -0.69168  -0.66183
 Alpha  occ. eigenvalues --   -0.59171  -0.55368  -0.52252  -0.49703  -0.47061
 Alpha  occ. eigenvalues --   -0.46015  -0.42098  -0.41329  -0.40677  -0.39271
 Alpha  occ. eigenvalues --   -0.38484  -0.37289  -0.35973  -0.35371  -0.34058
 Alpha  occ. eigenvalues --   -0.32242  -0.31852  -0.31038  -0.23076
 Alpha virt. eigenvalues --   -0.00954   0.07822   0.10645   0.11680   0.13051
 Alpha virt. eigenvalues --    0.14046   0.14848   0.15262   0.16518   0.17061
 Alpha virt. eigenvalues --    0.17215   0.18496   0.19322   0.19645   0.20623

 Mulliken charges:
               1
     1  O   -0.455831
     2  C    0.454970
     3  C   -0.172589
     4  C   -0.289368
     5  C   -0.293487
     6  C   -0.068695
     7  C   -0.458174
     8  C   -0.116390
     9  C   -0.355225
    10  H    0.139944
    11  H    0.144816
    12  H    0.144052
    13  H    0.154891
    14  H    0.148771
    15  H    0.128765
    16  H    0.144967
    17  H    0.143306
    18  H    0.147807
    19  H    0.124250
    20  H    0.168221
    21  H    0.164998
 Sum of Mulliken charges =  -0.00000

 Dipole moment (field-independent basis, Debye):
    X=             -2.8839    Y=              0.7591    Z=              0.8140  Tot=              3.0912
 Quadrupole moment (field-independent basis, Debye-Ang):
   XX=            -64.5418   YY=            -53.1121   ZZ=            -53.6933
   XY=              2.5843   XZ=              2.8177   YZ=             -0.5272

  Exact polarizability:  88.634  -0.057  75.840  -1.212  -0.570  71.190
 Approx polarizability: 122.643  -2.741 109.685  -5.934  -0.025 106.934

                      1                      2                      3
                      A                      A                      A
 Frequencies --     96.3049               170.9822               236.6256
 Red. masses --      4.2638                 2.9246                 1.0881
 Frc consts  --      0.0233                 0.0504                 0.0359
 IR Inten    --      3.5660                 1.3943                 0.0679

                      4                      5                      6
                      A                      A                      A
 Frequencies --    283.9487               341.7216               412.8128
 Red. masses --      2.2119                 2.0459                 3.7400
 Frc consts  --      0.1051                 0.1408                 0.3755
 IR Inten    --      0.2451                 0.0501                 1.8376

                      7                      8                      9
                      A                      A                      A
 Frequencies --    432.2382               464.9752               571.6664
 Red. masses --      2.1032                 3.1412                 2.5948
 Frc consts  --      0.2315                 0.4001                 0.4996
 IR Inten    --      1.5075                 6.0680                 1.9422

                     10                     11                     12
                      A                      A                      A
 Frequencies --    590.0048               676.5262               746.7943
 Red. masses --      2.6521                 4.2166                 3.6890
 Frc consts  --      0.5439                 1.1371                 1.2122
 IR Inten    --      1.9964                 0.6997                 2.6451

                     13                     14                     15
                      A                      A                      A
 Frequencies --    794.1746               809.4213               876.4371
 Red. masses --      3.3920                 2.7076                 2.3624
 Frc consts  --      1.2605                 1.0452                 1.0692
 IR Inten    --      4.3329                 2.4839                 3.6138

                     16                     17                     18
                      A                      A                      A
 Frequencies --    915.8639               923.8069               928.2455
 Red. masses --      1.5243                 2.8974                 2.2415
 Frc consts  --      0.7533                 1.4569                 1.1379
 IR Inten    --      0.4499                 2.0542                 3.7854

                     19                     20                     21
                      A                      A                      A
 Frequencies --    943.6115               955.4078               992.7164
 Red. masses --      2.0997                 1.8743                 1.6387
 Frc consts  --      1.1015                 1.0080                 0.9515
 IR Inten    --      1.5184                 0.8767                 3.1328

                     22                     23                     24
                      A                      A                      A
 Frequencies --   1027.7945              1051.6169              1073.3781
 Red. masses --      1.5758                 1.4929                 1.4274
 Frc consts  --      0.9807                 0.9727                 0.9689
 IR Inten    --     12.6896                 1.1941                15.3748

                     25                     26                     27
                      A                      A                      A
 Frequencies --   1113.6038              1125.8552              1165.8460
 Red. masses --      1.8531                 1.2126                 1.6588
 Frc consts  --      1.3540                 0.9056                 1.3284
 IR Inten    --      2.7040                 1.6162                 9.6344

                     28                     29                     30
                      A                      A                      A
 Frequencies --   1180.0068              1203.8784              1222.7520
 Red. masses --      1.7499                 1.6328                 1.5403
 Frc consts  --      1.4356                 1.3943                 1.3568
 IR Inten    --     14.5904                 0.5745                 2.5335

                     31                     32                     33
                      A                      A                      A
 Frequencies --   1243.5560              1276.5003              1306.4653
 Red. masses --      1.5816                 1.7334                 1.3669
 Frc consts  --      1.4411                 1.6642                 1.3747
 IR Inten    --      0.8053                 1.4523                 0.2681

                     34                     35                     36
                      A                      A                      A
 Frequencies --   1316.5814              1332.8374              1342.6166
 Red. masses --      1.4555                 1.4980                 1.5563
 Frc consts  --      1.4864                 1.5679                 1.6529
 IR Inten    --      0.4630                 5.6637                 0.2933

                     37                     38                     39
                      A                      A                      A
 Frequencies --   1356.1197              1400.1241              1440.4909
 Red. masses --      1.5258                 1.4684                 1.2406
 Frc consts  --      1.6532                 1.6960                 1.5167
 IR Inten    --      1.3865                 2.8694                 2.3941

                     40                     41                     42
                      A                      A                      A
 Frequencies --   1481.9119              1521.1178              1527.6260
 Red. masses --      1.0903                 1.0790                 1.0515
 Frc consts  --      1.4107                 1.4709                 1.4458
 IR Inten    --      8.4934                 3.8366                 3.2597

                     43                     44                     45
                      A                      A                      A
 Frequencies --   1529.5522              1541.3178              1850.9017
 Red. masses --      1.0558                 1.0932                12.2710
 Frc consts  --      1.4554                 1.5301                24.7683
 IR Inten    --      0.9849                 6.3557               245.9787

                     46                     47                     48
                      A                      A                      A
 Frequencies --   3040.3388              3043.1769              3052.9071
 Red. masses --      1.0360                 1.0850                 1.0639
 Frc consts  --      5.6424                 5.9202                 5.8420
 IR Inten    --     22.8900                19.4242                16.5300

                     49                     50                     51
                      A                      A                      A
 Frequencies --   3057.9957              3067.0436              3103.6298
 Red. masses --      1.0631                 1.0598                 1.0913
 Frc consts  --      5.8574                 5.8739                 6.1935
 IR Inten    --     28.4938                20.4800                10.9420

                     52                     53                     54
                      A                      A                      A
 Frequencies --   3104.4604              3105.1397              3107.8611
 Red. masses --      1.1010                 1.1013                 1.1008
 Frc consts  --      6.2518                 6.2564                 6.2643
 IR Inten    --      4.7821                29.6660                67.3641

                     55                     56                     57
                      A                      A                      A
 Frequencies --   3110.3523              3114.5256              3141.6029
 Red. masses --      1.1026                 1.1048                 1.0890
 Frc consts  --      6.2848                 6.3142                 6.3327
 IR Inten    --     23.2216                43.1440                21.3507

 - Thermochemistry -
 -------------------
 Temperature   298.150 Kelvin.  Pressure   1.00000 Atm.
 Atom     1 has atomic number  8 and mass  15.99491

 Molecular mass:   124.08882 amu.
 Principal axes and moments of inertia in atomic units:
                           1         2         3
     Eigenvalues --   556.059781364.805801450.73589
           X            0.99978   0.01678   0.01292
           Y           -0.01645   0.99955  -0.02506
           Z           -0.01334   0.02484   0.99960
 This molecule is an asymmetric top.
 Rotational symmetry number  1.
 Warning -- assumption of classical behavior for rotation
           may cause significant error
 Rotational temperatures (Kelvin)      0.15576     0.06346     0.05970
 Rotational constants (GHZ):           3.24559     1.32234     1.24402
 Zero-point vibrational energy     489546.4 (Joules/Mol)
                                  117.00440 (Kcal/Mol)
 Warning -- explicit consideration of  10 degrees of freedom as
           vibrations may cause significant error
 Vibrational temperatures:    138.56   246.01   340.45   408.54   491.66
          (Kelvin)            593.95   621.89   669.00   822.50   848.89
                              973.37  1074.47  1142.64  1164.58  1261.00
                             1317.72  1329.15  1335.54  1357.65  1374.62
                             1428.30  1478.77  1513.04  1544.35  1602.23
                             1619.85  1677.39  1697.77  1732.11  1759.27
                             1789.20  1836.60  1879.71  1894.27  1917.66
                             1931.73  1951.15  2014.47  2072.55  2132.14
                             2188.55  2197.91  2200.68  2217.61  2663.03
                             4374.37  4378.45  4392.45  4399.77  4412.79
                             4465.43  4466.63  4467.60  4471.52  4475.10
                             4481.11  4520.07

 Zero-point correction=                           0.186458 (Hartree/Particle)
 Thermal correction to Energy=                    0.194155
 Thermal correction to Enthalpy=                  0.195099
 Thermal correction to Gibbs Free Energy=         0.154481
 Sum of electronic and zero-point Energies=           -387.109797
 Sum of electronic and thermal Energies=              -387.102101
 Sum of electronic and thermal Enthalpies=            -387.101157
 Sum of electronic and thermal Free Energies=         -387.141774

                     E (Thermal)             CV                S
                      KCal/Mol        Cal/Mol-Kelvin    Cal/Mol-Kelvin
 Total                  121.834             31.219             85.487
 Electronic               0.000              0.000              0.000
 Translational            0.889              2.981             40.361
 Rotational               0.889              2.981             28.489
 Vibrational            120.056             25.258             16.636
 Vibration     1          0.603              1.952              3.528
 Vibration     2          0.626              1.878              2.425
 Vibration     3          0.656              1.785              1.828
 Vibration     4          0.682              1.703              1.510
 Vibration     5          0.721              1.592              1.204
 Vibration     6          0.777              1.442              0.917
 Vibration     7          0.793              1.400              0.851
 Vibration     8          0.822              1.328              0.752
 Vibration     9          0.928              1.093              0.501
 Vibration    10          0.947              1.053              0.467

 Normal termination of Gaussian 16 at Wed Feb 21 18:27:32 2024.
