 Gaussian 16, Revision A.03,
 Gaussian 16:  EM64M-G16RevA.03 25-Dec-2016

 ---------------------
 # freq b3lyp/6-31g(d)
 ---------------------

 ---------
 good luck
 ---------
 Symbolic Z-matrix:
 Charge =  0 Multiplicity = 1

                         Standard orientation:
 ---------------------------------------------------------------------
 Center     Atomic      Atomic             Coordinates (Angstroms)
 Number     Number       Type             X           Y           Z
 ---------------------------------------------------------------------
      1          8           0       -3.299779   -0.000867   -1.038401
      2          6           0       -2.370875   -0.000356   -0.253109
      3          6           0       -1.749174    1.284740    0.279552
      4          6           0       -0.210050    1.264841    0.190122
      5          6           0        0.391402    0.000634    0.831368
      6          6           0        1.919566    0.000906    0.761617
      7          8           0        2.328978    0.000349   -0.593904
      8          6           0        3.731698   -0.001041   -0.744890
      9          6           0       -0.209590   -1.264341    0.191157
     10          6           0       -1.748702   -1.284729    0.280753
     11          1           0       -2.179594    2.131065   -0.263724
     12          1           0       -2.047570    1.381857    1.335383
     13          1           0        0.099800    1.307829   -0.860674
     14          1           0        0.196161    2.162757    0.673454
     15          1           0        0.134006    0.000963    1.903360
     16          1           0        2.321588    0.890234    1.278903
     17          1           0        2.321969   -0.887749    1.279750
     18          1           0        4.189749   -0.894550   -0.290358
     19          1           0        4.191536    0.891345   -0.289962
     20          1           0        3.941777   -0.001017   -1.817655
     21          1           0        0.197012   -2.161715    0.675171
     22          1           0        0.100169   -1.308094   -0.859610
     23          1           0       -2.047007   -1.380975    1.336696
     24          1           0       -2.178843   -2.131719   -0.261717
 ---------------------------------------------------------------------

 SCF Done:  E(RB3LYP) =  -463.719624668     A.U. after   14 cycles

 The electronic state is 1-A.
 Alpha  occ. eigenvalues --  -19.15307 -19.12949 -10.26566 -10.23539 -10.23164
 Alpha  occ. eigenvalues --  -10.19716 -10.18849 -10.18847 -10.18799 -10.18797
 Alpha  occ. eigenvalues --   -1.03688  -1.02824  -0.83494  -0.75728  -0.75182
 Alpha  occ. eigenvalues --   -0.69270  -0.64301  -0.62675  -0.57210  -0.52979
 Alpha  occ. eigenvalues --   -0.48820  -0.47929  -0.47735  -0.45505  -0.44612
 Alpha  occ. eigenvalues --   -0.43733  -0.42522  -0.41370  -0.39209  -0.39071
 Alpha  occ. eigenvalues --   -0.38141  -0.35435  -0.35091  -0.34169  -0.32343
 Alpha  occ. eigenvalues --   -0.31990  -0.31019  -0.25964  -0.23175
 Alpha virt. eigenvalues --   -0.00989   0.08240   0.09802   0.11637   0.12351
 Alpha virt. eigenvalues --    0.12783   0.13528   0.15138   0.15389   0.16259
 Alpha virt. eigenvalues --    0.17161   0.17335   0.17641   0.18182   0.18627

 Mulliken charges:
               1
     1  O   -0.446796
     2  C    0.454111
     3  C   -0.346870
     4  C   -0.273186
     5  C   -0.107604
     6  C   -0.012653
     7  O   -0.461874
     8  C   -0.190587
     9  C   -0.273182
    10  C   -0.346872
    11  H    0.162916
    12  H    0.150177
    13  H    0.166362
    14  H    0.134979
    15  H    0.119595
    16  H    0.117271
    17  H    0.117252
    18  H    0.130909
    19  H    0.130898
    20  H    0.160739
    21  H    0.134971
    22  H    0.166355
    23  H    0.150175
    24  H    0.162912
 Sum of Mulliken charges =  -0.00000

 Dipole moment (field-independent basis, Debye):
    X=              3.3757    Y=              0.0004    Z=              2.5234  Tot=              4.2146
 Quadrupole moment (field-independent basis, Debye-Ang):
   XX=            -67.2062   YY=            -59.6349   ZZ=            -61.7946
   XY=             -0.0086   XZ=             -6.0839   YZ=             -0.0002

  Exact polarizability: 102.076  -0.001  82.794   3.290   0.002  77.530
 Approx polarizability: 125.189   0.002 113.350  10.281   0.007 121.703

                      1                      2                      3
                      A                      A                      A
 Frequencies --     56.9249                76.8138               107.1222
 Red. masses --      6.3142                 2.8063                 2.1098
 Frc consts  --      0.0121                 0.0098                 0.0143
 IR Inten    --      1.6000                 0.9505                 2.6276

                      4                      5                      6
                      A                      A                      A
 Frequencies --    142.1711               177.2878               232.0230
 Red. masses --      3.4534                 2.0331                 1.3264
 Frc consts  --      0.0411                 0.0377                 0.0421
 IR Inten    --      3.9633                 1.2894                 3.3517

                      7                      8                      9
                      A                      A                      A
 Frequencies --    246.3941               317.5069               323.3506
 Red. masses --      3.1639                 3.3963                 2.0522
 Frc consts  --      0.1132                 0.2017                 0.1264
 IR Inten    --      0.7113                 0.6605                 0.0040

                     10                     11                     12
                      A                      A                      A
 Frequencies --    417.4146               426.4622               445.8697
 Red. masses --      2.4399                 3.6672                 1.7906
 Frc consts  --      0.2505                 0.3930                 0.2097
 IR Inten    --      3.4111                 4.1376                 0.1416

                     13                     14                     15
                      A                      A                      A
 Frequencies --    504.0060               620.7223               714.6814
 Red. masses --      3.2234                 3.8346                 3.2099
 Frc consts  --      0.4824                 0.8705                 0.9660
 IR Inten    --      6.9299                 0.3273                 0.7879

                     16                     17                     18
                      A                      A                      A
 Frequencies --    750.7315               769.4155               824.0365
 Red. masses --      3.2641                 1.5630                 2.2588
 Frc consts  --      1.0839                 0.5452                 0.9037
 IR Inten    --      2.1890                 3.2064                11.4623

                     19                     20                     21
                      A                      A                      A
 Frequencies --    905.8313               929.9733               952.9484
 Red. masses --      2.0099                 1.3791                 2.3780
 Frc consts  --      0.9717                 0.7027                 1.2723
 IR Inten    --      5.4097                 3.4688                 7.3128

                     22                     23                     24
                      A                      A                      A
 Frequencies --    972.0412              1019.6822              1021.8552
 Red. masses --      2.3296                 1.7010                 2.2627
 Frc consts  --      1.2969                 1.0420                 1.3920
 IR Inten    --      2.3283                 3.1787                 6.0468

                     25                     26                     27
                      A                      A                      A
 Frequencies --   1080.5284              1081.8664              1138.3639
 Red. masses --      2.5509                 1.2375                 2.3438
 Frc consts  --      1.7548                 0.8534                 1.7895
 IR Inten    --     21.1736                 2.5719                 3.6005

                     28                     29                     30
                      A                      A                      A
 Frequencies --   1143.0152              1169.9577              1186.5447
 Red. masses --      1.7560                 3.9022                 1.4781
 Frc consts  --      1.3517                 3.1470                 1.2261
 IR Inten    --      8.2737               138.9732                10.7519

                     31                     32                     33
                      A                      A                      A
 Frequencies --   1203.7170              1218.1698              1252.6046
 Red. masses --      1.7988                 1.4951                 1.4712
 Frc consts  --      1.5357                 1.3072                 1.3600
 IR Inten    --     34.5635                36.1864                14.9018

                     34                     35                     36
                      A                      A                      A
 Frequencies --   1267.7736              1291.3551              1291.4071
 Red. masses --      1.3623                 1.3944                 1.2072
 Frc consts  --      1.2900                 1.3700                 1.1862
 IR Inten    --      2.0420                 2.6973                 6.3272

                     37                     38                     39
                      A                      A                      A
 Frequencies --   1332.1851              1339.2529              1365.6372
 Red. masses --      1.3640                 1.3362                 1.3658
 Frc consts  --      1.4263                 1.4120                 1.5007
 IR Inten    --      1.2358                 2.5533                 2.5112

                     40                     41                     42
                      A                      A                      A
 Frequencies --   1370.3562              1400.2853              1415.7796
 Red. masses --      1.5537                 1.4958                 1.6837
 Frc consts  --      1.7190                 1.7280                 1.9884
 IR Inten    --     14.8977                 0.1078                12.0085

                     43                     44                     45
                      A                      A                      A
 Frequencies --   1437.9620              1491.7763              1501.4951
 Red. masses --      1.3099                 1.0950                 1.0885
 Frc consts  --      1.5958                 1.4357                 1.4459
 IR Inten    --     33.3455                 5.5482                11.4271

                     46                     47                     48
                      A                      A                      A
 Frequencies --   1503.8455              1514.6587              1522.3457
 Red. masses --      1.1592                 1.0481                 1.0873
 Frc consts  --      1.5445                 1.4167                 1.4847
 IR Inten    --      0.9660                 5.0166                 3.6118

                     49                     50                     51
                      A                      A                      A
 Frequencies --   1531.3174              1536.7058              1553.9533
 Red. masses --      1.0631                 1.0878                 1.0887
 Frc consts  --      1.4687                 1.5135                 1.5489
 IR Inten    --     10.8643                 4.5411                 1.1088

                     52                     53                     54
                      A                      A                      A
 Frequencies --   1819.2649              2960.4692              2989.3460
 Red. masses --     11.0184                 1.0538                 1.1073
 Frc consts  --     21.4862                 5.4419                 5.8301
 IR Inten    --    194.8176                32.6617                66.7300

                     55                     56                     57
                      A                      A                      A
 Frequencies --   2989.6598              3000.0941              3013.6546
 Red. masses --      1.0395                 1.0808                 1.0694
 Frc consts  --      5.4742                 5.7313                 5.7224
 IR Inten    --     85.9645                39.2727                 0.4912

                     58                     59                     60
                      A                      A                      A
 Frequencies --   3020.7449              3032.1078              3046.7280
 Red. masses --      1.0699                 1.1050                 1.0624
 Frc consts  --      5.7523                 5.9855                 5.8103
 IR Inten    --     32.5245                57.1757                57.8250

                     61                     62                     63
                      A                      A                      A
 Frequencies --   3049.5150              3091.5463              3096.2222
 Red. masses --      1.0636                 1.1013                 1.0998
 Frc consts  --      5.8274                 6.2019                 6.2119
 IR Inten    --     22.3312                13.5901                35.0276

                     64                     65                     66
                      A                      A                      A
 Frequencies --   3116.8337              3118.2133              3136.8944
 Red. masses --      1.0936                 1.0944                 1.0966
 Frc consts  --      6.2596                 6.2693                 6.3575
 IR Inten    --     20.1866                21.2907                30.2610

 - Thermochemistry -
 -------------------
 Temperature   298.150 Kelvin.  Pressure   1.00000 Atm.
 Atom     1 has atomic number  8 and mass  15.99491

 Molecular mass:   142.09938 amu.
 Principal axes and moments of inertia in atomic units:
                           1         2         3
     Eigenvalues --   613.521002715.043642866.22363
           X            0.99993  -0.00003  -0.01160
           Y            0.00003   1.00000  -0.00003
           Z            0.01160   0.00003   0.99993
 This molecule is an asymmetric top.
 Rotational symmetry number  1.
 Warning -- assumption of classical behavior for rotation
           may cause significant error
 Rotational temperatures (Kelvin)      0.14118     0.03190     0.03022
 Rotational constants (GHZ):           2.94161     0.66472     0.62966
 Zero-point vibrational energy     559729.2 (Joules/Mol)
                                  133.77850 (Kcal/Mol)
 Warning -- explicit consideration of  14 degrees of freedom as
           vibrations may cause significant error
 Vibrational temperatures:     81.90   110.52   154.12   204.55   255.08
          (Kelvin)            333.83   354.51   456.82   465.23   600.57
                              613.58   641.51   725.15   893.08  1028.27
                             1080.14  1107.02  1185.60  1303.29  1338.02
                             1371.08  1398.55  1467.10  1470.22  1554.64
                             1556.56  1637.85  1644.54  1683.31  1707.17
                             1731.88  1752.67  1802.22  1824.04  1857.97
                             1858.05  1916.72  1926.89  1964.85  1971.64
                             2014.70  2036.99  2068.91  2146.33  2160.32
                             2163.70  2179.26  2190.32  2203.22  2210.98
                             2235.79  2617.52  4259.45  4301.00  4301.45
                             4316.47  4335.98  4346.18  4362.53  4383.56
                             4387.57  4448.05  4454.77  4484.43  4486.41
                             4513.29

 Zero-point correction=                           0.213190 (Hartree/Particle)
 Thermal correction to Energy=                    0.223530
 Thermal correction to Enthalpy=                  0.224475
 Thermal correction to Gibbs Free Energy=         0.176987
 Sum of electronic and zero-point Energies=           -463.506435
 Sum of electronic and thermal Energies=              -463.496094
 Sum of electronic and thermal Enthalpies=            -463.495150
 Sum of electronic and thermal Free Energies=         -463.542638

                     E (Thermal)             CV                S
                      KCal/Mol        Cal/Mol-Kelvin    Cal/Mol-Kelvin
 Total                  140.267             38.203             99.946
 Electronic               0.000              0.000              0.000
 Translational            0.889              2.981             40.765
 Rotational               0.889              2.981             29.947
 Vibrational            138.490             32.241             29.234
 Vibration     1          0.596              1.975              4.561
 Vibration     2          0.599              1.965              3.971
 Vibration     3          0.606              1.944              3.320
 Vibration     4          0.616              1.911              2.774
 Vibration     5          0.628              1.870              2.357
 Vibration     6          0.653              1.792              1.863
 Vibration     7          0.661              1.769              1.756
 Vibration     8          0.704              1.640              1.323
 Vibration     9          0.708              1.629              1.293
 Vibration    10          0.780              1.432              0.901
 Vibration    11          0.788              1.413              0.870
 Vibration    12          0.805              1.370              0.808
 Vibration    13          0.859              1.241              0.648
 Vibration    14          0.981              0.988              0.415

 Normal termination of Gaussian 16 at Thu Feb 22 00:53:26 2024.
