 Gaussian 16, Revision A.03,
 Gaussian 16:  EM64M-G16RevA.03 25-Dec-2016

 ---------------------
 # freq b3lyp/6-31g(d)
 ---------------------

 ---------
 good luck
 ---------
 Symbolic Z-matrix:
 Charge =  0 Multiplicity = 1

                         Standard orientation:
 ---------------------------------------------------------------------
 Center     Atomic      Atomic             Coordinates (Angstroms)
 Number     Number       Type             X           Y           Z
 ---------------------------------------------------------------------
      1          8           0       -3.583674   -0.397879   -0.490150
      2          6           0       -2.489688   -0.209068    0.007145
      3          6           0       -1.983934    1.185748    0.358908
      4          6           0       -0.550150    1.430524   -0.154328
      5          6           0        0.414790    0.314600    0.282616
      6          6           0        1.830369    0.589099   -0.221627
      7          8           0        2.704142   -0.397125    0.295487
      8          6           0        4.035158   -0.236677   -0.144897
      9          6           0       -0.102781   -1.055331   -0.188784
     10          6           0       -1.526114   -1.343513    0.329426
     11          1           0       -1.989609    1.272774    1.456428
     12          1           0       -2.690761    1.921850   -0.034847
     13          1           0       -0.196316    2.406591    0.201471
     14          1           0       -0.566152    1.485169   -1.252566
     15          1           0        0.461897    0.306086    1.382622
     16          1           0        1.849573    0.576256   -1.326812
     17          1           0        2.159380    1.594199    0.096870
     18          1           0        4.624175   -1.038412    0.308226
     19          1           0        4.453942    0.734262    0.166425
     20          1           0        4.114425   -0.310401   -1.241760
     21          1           0        0.583330   -1.843486    0.135308
     22          1           0       -0.108312   -1.073629   -1.288831
     23          1           0       -1.493347   -1.450639    1.424878
     24          1           0       -1.931860   -2.272875   -0.080858
 ---------------------------------------------------------------------

 SCF Done:  E(RB3LYP) =  -463.719919508     A.U. after   14 cycles

 The electronic state is 1-A.
 Alpha  occ. eigenvalues --  -19.15223 -19.13169 -10.26773 -10.23479 -10.23108
 Alpha  occ. eigenvalues --  -10.19657 -10.19621 -10.19171 -10.18875 -10.18850
 Alpha  occ. eigenvalues --   -1.03604  -1.03040  -0.83796  -0.75811  -0.75457
 Alpha  occ. eigenvalues --   -0.69472  -0.63928  -0.62624  -0.57930  -0.53326
 Alpha  occ. eigenvalues --   -0.48702  -0.48154  -0.47635  -0.45791  -0.44749
 Alpha  occ. eigenvalues --   -0.43840  -0.42803  -0.41330  -0.39693  -0.38752
 Alpha  occ. eigenvalues --   -0.38447  -0.35793  -0.35286  -0.33267  -0.32794
 Alpha  occ. eigenvalues --   -0.32400  -0.31414  -0.25946  -0.23391
 Alpha virt. eigenvalues --   -0.01167   0.08522   0.09466   0.10273   0.12115
 Alpha virt. eigenvalues --    0.13268   0.13659   0.14943   0.15503   0.16120
 Alpha virt. eigenvalues --    0.16466   0.16788   0.17345   0.18132   0.19232

 Mulliken charges:
               1
     1  O   -0.446131
     2  C    0.452338
     3  C   -0.345266
     4  C   -0.280618
     5  C   -0.106780
     6  C   -0.004291
     7  O   -0.466334
     8  C   -0.191632
     9  C   -0.271718
    10  C   -0.348371
    11  H    0.154966
    12  H    0.163399
    13  H    0.141048
    14  H    0.142909
    15  H    0.133625
    16  H    0.114784
    17  H    0.117290
    18  H    0.159692
    19  H    0.130344
    20  H    0.131329
    21  H    0.165532
    22  H    0.135856
    23  H    0.154816
    24  H    0.163216
 Sum of Mulliken charges =  -0.00000

 Dipole moment (field-independent basis, Debye):
    X=              3.2860    Y=              1.2282    Z=              0.4846  Tot=              3.5414
 Quadrupole moment (field-independent basis, Debye-Ang):
   XX=            -71.2214   YY=            -59.8005   ZZ=            -60.7081
   XY=             -1.0076   XZ=             -5.8168   YZ=             -0.1274

  Exact polarizability: 107.374  -0.229  83.529   2.442   0.685  72.257
 Approx polarizability: 131.601   1.595 115.050   8.839   0.720 114.127

                      1                      2                      3
                      A                      A                      A
 Frequencies --     55.7717                86.8416               102.5836
 Red. masses --      4.7824                 3.3472                 2.0835
 Frc consts  --      0.0088                 0.0149                 0.0129
 IR Inten    --      1.8350                 3.0566                 3.6486

                      4                      5                      6
                      A                      A                      A
 Frequencies --    129.1779               184.3489               219.1358
 Red. masses --      3.5784                 1.9379                 2.1734
 Frc consts  --      0.0352                 0.0388                 0.0615
 IR Inten    --      1.4265                 1.1610                 1.0928

                      7                      8                      9
                      A                      A                      A
 Frequencies --    243.0336               301.7003               351.3361
 Red. masses --      1.3852                 3.7538                 3.0217
 Frc consts  --      0.0482                 0.2013                 0.2198
 IR Inten    --      2.4164                 0.6368                 2.9673

                     10                     11                     12
                      A                      A                      A
 Frequencies --    415.4649               425.0428               449.3981
 Red. masses --      1.8451                 3.7110                 2.3652
 Frc consts  --      0.1876                 0.3950                 0.2814
 IR Inten    --      1.7203                 5.1723                 1.4187

                     13                     14                     15
                      A                      A                      A
 Frequencies --    503.0355               554.7775               690.7749
 Red. masses --      3.3257                 2.7975                 3.1998
 Frc consts  --      0.4958                 0.5073                 0.8996
 IR Inten    --      5.3174                 0.8262                 1.0499

                     16                     17                     18
                      A                      A                      A
 Frequencies --    755.8022               771.2903               832.0100
 Red. masses --      2.9912                 1.5647                 2.2322
 Frc consts  --      1.0067                 0.5484                 0.9104
 IR Inten    --      3.0749                 3.9469                 2.6339

                     19                     20                     21
                      A                      A                      A
 Frequencies --    924.1437               933.8197               961.3782
 Red. masses --      1.6293                 1.8147                 1.8519
 Frc consts  --      0.8199                 0.9324                 1.0085
 IR Inten    --      2.4193                12.3428                 1.5469

                     22                     23                     24
                      A                      A                      A
 Frequencies --    985.7168              1010.8166              1023.6034
 Red. masses --      2.1152                 2.3674                 2.2239
 Frc consts  --      1.2109                 1.4252                 1.3729
 IR Inten    --     14.7220                 4.5650                 6.2884

                     25                     26                     27
                      A                      A                      A
 Frequencies --   1082.1474              1108.3339              1132.9235
 Red. masses --      1.3194                 2.5852                 1.9433
 Frc consts  --      0.9104                 1.8710                 1.4696
 IR Inten    --      2.0843                 2.4567                 6.5758

                     28                     29                     30
                      A                      A                      A
 Frequencies --   1149.8422              1170.9806              1187.0933
 Red. masses --      2.0836                 3.8569                 1.8544
 Frc consts  --      1.6231                 3.1159                 1.5396
 IR Inten    --     10.7688               151.9914                28.3148

                     31                     32                     33
                      A                      A                      A
 Frequencies --   1194.2693              1231.4527              1246.1375
 Red. masses --      1.4801                 1.5123                 1.4746
 Frc consts  --      1.2438                 1.3512                 1.3492
 IR Inten    --     16.1515                32.7799                26.9058

                     34                     35                     36
                      A                      A                      A
 Frequencies --   1274.6546              1278.5317              1295.6075
 Red. masses --      1.3012                 1.3748                 1.3345
 Frc consts  --      1.2456                 1.3241                 1.3198
 IR Inten    --      1.9416                 6.9405                 0.6969

                     37                     38                     39
                      A                      A                      A
 Frequencies --   1323.2124              1344.8572              1364.7280
 Red. masses --      1.3138                 1.2817                 1.4246
 Frc consts  --      1.3553                 1.3658                 1.5633
 IR Inten    --      3.2452                 5.0496                 4.8668

                     40                     41                     42
                      A                      A                      A
 Frequencies --   1368.8901              1399.9155              1418.3741
 Red. masses --      1.4618                 1.4593                 1.5040
 Frc consts  --      1.6139                 1.6850                 1.7828
 IR Inten    --     10.3551                 0.1552                 0.0148

                     43                     44                     45
                      A                      A                      A
 Frequencies --   1442.4623              1491.3060              1501.0179
 Red. masses --      1.4173                 1.0944                 1.0867
 Frc consts  --      1.7374                 1.4341                 1.4425
 IR Inten    --     36.7161                 5.3226                 8.8090

                     46                     47                     48
                      A                      A                      A
 Frequencies --   1503.7118              1514.7881              1520.1403
 Red. masses --      1.1661                 1.0481                 1.0889
 Frc consts  --      1.5536                 1.4169                 1.4825
 IR Inten    --      3.2743                 4.9626                 3.3352

                     49                     50                     51
                      A                      A                      A
 Frequencies --   1531.2188              1535.4988              1555.4474
 Red. masses --      1.0701                 1.0807                 1.0888
 Frc consts  --      1.4783                 1.5013                 1.5521
 IR Inten    --      8.5891                 5.8347                 0.5854

                     52                     53                     54
                      A                      A                      A
 Frequencies --   1818.7259              2956.7734              2984.4051
 Red. masses --     11.0087                 1.0543                 1.1007
 Frc consts  --     21.4546                 5.4307                 5.7759
 IR Inten    --    195.9257                34.7274                47.2509

                     55                     56                     57
                      A                      A                      A
 Frequencies --   2989.4753              3013.8817              3017.3198
 Red. masses --      1.0402                 1.0819                 1.0704
 Frc consts  --      5.4771                 5.7903                 5.7416
 IR Inten    --     85.7279                10.5772                 5.2871

                     58                     59                     60
                      A                      A                      A
 Frequencies --   3024.2948              3027.8435              3031.3920
 Red. masses --      1.0709                 1.0645                 1.1048
 Frc consts  --      5.7712                 5.7501                 5.9818
 IR Inten    --      3.6693                 9.2758                62.8985

                     61                     62                     63
                      A                      A                      A
 Frequencies --   3036.9613              3073.5172              3111.9404
 Red. masses --      1.0677                 1.1011                 1.0939
 Frc consts  --      5.8022                 6.1282                 6.2417
 IR Inten    --     92.2729                50.4043                19.3227

                     64                     65                     66
                      A                      A                      A
 Frequencies --   3117.3796              3118.9840              3136.1752
 Red. masses --      1.0937                 1.0945                 1.0965
 Frc consts  --      6.2623                 6.2735                 6.3542
 IR Inten    --     21.5785                18.3253                32.9335

 - Thermochemistry -
 -------------------
 Temperature   298.150 Kelvin.  Pressure   1.00000 Atm.
 Atom     1 has atomic number  8 and mass  15.99491

 Molecular mass:   142.09938 amu.
 Principal axes and moments of inertia in atomic units:
                           1         2         3
     Eigenvalues --   505.196652932.697663270.73820
           X            0.99994  -0.00212  -0.01079
           Y            0.00209   0.99999  -0.00338
           Z            0.01080   0.00335   0.99994
 This molecule is an asymmetric top.
 Rotational symmetry number  1.
 Warning -- assumption of classical behavior for rotation
           may cause significant error
 Rotational temperatures (Kelvin)      0.17145     0.02953     0.02648
 Rotational constants (GHZ):           3.57235     0.61539     0.55178
 Zero-point vibrational energy     559479.2 (Joules/Mol)
                                  133.71874 (Kcal/Mol)
 Warning -- explicit consideration of  14 degrees of freedom as
           vibrations may cause significant error
 Vibrational temperatures:     80.24   124.95   147.59   185.86   265.24
          (Kelvin)            315.29   349.67   434.08   505.49   597.76
                              611.54   646.58   723.76   798.20   993.87
                             1087.43  1109.71  1197.08  1329.64  1343.56
                             1383.21  1418.23  1454.34  1472.74  1556.97
                             1594.65  1630.02  1654.37  1684.78  1707.96
                             1718.29  1771.79  1792.91  1833.94  1839.52
                             1864.09  1903.81  1934.95  1963.54  1969.53
                             2014.17  2040.72  2075.38  2145.66  2159.63
                             2163.51  2179.44  2187.14  2203.08  2209.24
                             2237.94  2616.74  4254.14  4293.89  4301.19
                             4336.30  4341.25  4351.29  4356.39  4361.50
                             4369.51  4422.11  4477.39  4485.21  4487.52
                             4512.26

 Zero-point correction=                           0.213094 (Hartree/Particle)
 Thermal correction to Energy=                    0.223483
 Thermal correction to Enthalpy=                  0.224428
 Thermal correction to Gibbs Free Energy=         0.176844
 Sum of electronic and zero-point Energies=           -463.506825
 Sum of electronic and thermal Energies=              -463.496436
 Sum of electronic and thermal Enthalpies=            -463.495492
 Sum of electronic and thermal Free Energies=         -463.543075

                     E (Thermal)             CV                S
                      KCal/Mol        Cal/Mol-Kelvin    Cal/Mol-Kelvin
 Total                  140.238             38.297            100.147
 Electronic               0.000              0.000              0.000
 Translational            0.889              2.981             40.765
 Rotational               0.889              2.981             29.962
 Vibrational            138.460             32.336             29.420
 Vibration     1          0.596              1.975              4.601
 Vibration     2          0.601              1.958              3.730
 Vibration     3          0.605              1.947              3.405
 Vibration     4          0.612              1.924              2.958
 Vibration     5          0.631              1.861              2.284
 Vibration     6          0.647              1.812              1.966
 Vibration     7          0.659              1.774              1.781
 Vibration     8          0.694              1.670              1.407
 Vibration     9          0.728              1.573              1.160
 Vibration    10          0.779              1.437              0.908
 Vibration    11          0.787              1.416              0.875
 Vibration    12          0.808              1.362              0.798
 Vibration    13          0.858              1.243              0.651
 Vibration    14          0.910              1.129              0.534

 Normal termination of Gaussian 16 at Wed Feb 21 23:31:35 2024.
