 Gaussian 16, Revision A.03,
 Gaussian 16:  EM64M-G16RevA.03 25-Dec-2016

 ---------------------
 # freq b3lyp/6-31g(d)
 ---------------------

 ---------
 good luck
 ---------
 Symbolic Z-matrix:
 Charge =  0 Multiplicity = 1

                         Standard orientation:
 ---------------------------------------------------------------------
 Center     Atomic      Atomic             Coordinates (Angstroms)
 Number     Number       Type             X           Y           Z
 ---------------------------------------------------------------------
      1          8           0        3.583585   -0.398694   -0.489604
      2          6           0        2.489509   -0.209447    0.007088
      3          6           0        1.525322   -1.343521    0.329127
      4          6           0        0.102198   -1.054840   -0.188625
      5          6           0       -0.414629    0.315235    0.283011
      6          6           0       -1.830414    0.590186   -0.220197
      7          8           0       -2.703391   -0.398161    0.294079
      8          6           0       -4.034647   -0.237066   -0.144945
      9          6           0        0.550404    1.430730   -0.154690
     10          6           0        1.983960    1.185688    0.358136
     11          1           0        1.930582   -2.273009   -0.081424
     12          1           0        1.492892   -1.451158    1.424574
     13          1           0       -0.583989   -1.842734    0.135983
     14          1           0        0.107101   -1.073397   -1.288687
     15          1           0       -0.460817    0.306706    1.383061
     16          1           0       -2.160227    1.594006    0.101440
     17          1           0       -1.849992    0.580707   -1.325416
     18          1           0       -4.452957    0.733693    0.167601
     19          1           0       -4.114854   -0.309634   -1.241817
     20          1           0       -4.623709   -1.039015    0.307779
     21          1           0        0.197018    2.406955    0.201067
     22          1           0        0.565996    1.485123   -1.252956
     23          1           0        2.690882    1.921494   -0.036090
     24          1           0        1.990307    1.273309    1.455655
 ---------------------------------------------------------------------

 SCF Done:  E(RB3LYP) =  -463.719919719     A.U. after   14 cycles

 The electronic state is 1-A.
 Alpha  occ. eigenvalues --  -19.15222 -19.13168 -10.26772 -10.23479 -10.23108
 Alpha  occ. eigenvalues --  -10.19655 -10.19619 -10.19170 -10.18873 -10.18845
 Alpha  occ. eigenvalues --   -1.03608  -1.03045  -0.83799  -0.75811  -0.75460
 Alpha  occ. eigenvalues --   -0.69471  -0.63930  -0.62621  -0.57930  -0.53326
 Alpha  occ. eigenvalues --   -0.48704  -0.48158  -0.47635  -0.45789  -0.44749
 Alpha  occ. eigenvalues --   -0.43841  -0.42803  -0.41331  -0.39696  -0.38750
 Alpha  occ. eigenvalues --   -0.38447  -0.35793  -0.35286  -0.33268  -0.32790
 Alpha  occ. eigenvalues --   -0.32400  -0.31414  -0.25946  -0.23390
 Alpha virt. eigenvalues --   -0.01164   0.08522   0.09466   0.10274   0.12113
 Alpha virt. eigenvalues --    0.13271   0.13660   0.14946   0.15503   0.16123
 Alpha virt. eigenvalues --    0.16466   0.16783   0.17353   0.18131   0.19229

 Mulliken charges:
               1
     1  O   -0.446079
     2  C    0.452367
     3  C   -0.348430
     4  C   -0.271653
     5  C   -0.106842
     6  C   -0.004266
     7  O   -0.466281
     8  C   -0.191621
     9  C   -0.280532
    10  C   -0.345318
    11  H    0.163208
    12  H    0.154818
    13  H    0.165579
    14  H    0.135841
    15  H    0.133561
    16  H    0.117305
    17  H    0.114767
    18  H    0.130291
    19  H    0.131323
    20  H    0.159681
    21  H    0.141022
    22  H    0.142910
    23  H    0.163387
    24  H    0.154961
 Sum of Mulliken charges =  -0.00000

 Dipole moment (field-independent basis, Debye):
    X=             -3.2864    Y=              1.2311    Z=              0.4869  Tot=              3.5431
 Quadrupole moment (field-independent basis, Debye-Ang):
   XX=            -71.2189   YY=            -59.8030   ZZ=            -60.7044
   XY=              1.0086   XZ=              5.8031   YZ=             -0.1285

  Exact polarizability: 107.359   0.231  83.533  -2.438   0.685  72.256
 Approx polarizability: 131.575  -1.596 115.061  -8.825   0.724 114.115

                      1                      2                      3
                      A                      A                      A
 Frequencies --     55.4236                86.6317               102.1804
 Red. masses --      4.7827                 3.3348                 2.0873
 Frc consts  --      0.0087                 0.0147                 0.0128
 IR Inten    --      1.8283                 3.1407                 3.5768

                      4                      5                      6
                      A                      A                      A
 Frequencies --    128.9793               184.2805               218.8682
 Red. masses --      3.5772                 1.9378                 2.1767
 Frc consts  --      0.0351                 0.0388                 0.0614
 IR Inten    --      1.4136                 1.1624                 1.0838

                      7                      8                      9
                      A                      A                      A
 Frequencies --    243.0470               301.6761               351.4104
 Red. masses --      1.3827                 3.7616                 3.0275
 Frc consts  --      0.0481                 0.2017                 0.2203
 IR Inten    --      2.4302                 0.6285                 2.9796

                     10                     11                     12
                      A                      A                      A
 Frequencies --    415.4967               425.0206               449.3360
 Red. masses --      1.8440                 3.7150                 2.3652
 Frc consts  --      0.1876                 0.3954                 0.2814
 IR Inten    --      1.7167                 5.1976                 1.4207

                     13                     14                     15
                      A                      A                      A
 Frequencies --    502.9992               554.8096               690.7333
 Red. masses --      3.3246                 2.7977                 3.2002
 Frc consts  --      0.4956                 0.5074                 0.8996
 IR Inten    --      5.2922                 0.8271                 1.0429

                     16                     17                     18
                      A                      A                      A
 Frequencies --    755.7530               771.2915               831.9993
 Red. masses --      2.9914                 1.5649                 2.2322
 Frc consts  --      1.0067                 0.5485                 0.9104
 IR Inten    --      3.0767                 3.9456                 2.6187

                     19                     20                     21
                      A                      A                      A
 Frequencies --    924.2695               934.0922               961.3728
 Red. masses --      1.6164                 1.8305                 1.8503
 Frc consts  --      0.8136                 0.9410                 1.0076
 IR Inten    --      2.2689                12.5211                 1.5404

                     22                     23                     24
                      A                      A                      A
 Frequencies --    985.8835              1011.0834              1024.0585
 Red. masses --      2.1149                 2.3652                 2.2193
 Frc consts  --      1.2111                 1.4246                 1.3713
 IR Inten    --     14.7869                 4.5476                 6.2589

                     25                     26                     27
                      A                      A                      A
 Frequencies --   1082.3325              1108.4654              1133.0543
 Red. masses --      1.3190                 2.5824                 1.9465
 Frc consts  --      0.9104                 1.8695                 1.4723
 IR Inten    --      2.0625                 2.4341                 6.5522

                     28                     29                     30
                      A                      A                      A
 Frequencies --   1149.9413              1171.2490              1187.2010
 Red. masses --      2.0826                 3.8332                 1.8707
 Frc consts  --      1.6226                 3.0982                 1.5535
 IR Inten    --     10.4641               151.8533                29.1115

                     31                     32                     33
                      A                      A                      A
 Frequencies --   1194.2880              1231.6035              1246.1553
 Red. masses --      1.4756                 1.5148                 1.4730
 Frc consts  --      1.2400                 1.3538                 1.3477
 IR Inten    --     15.9095                33.1036                26.7303

                     34                     35                     36
                      A                      A                      A
 Frequencies --   1274.7908              1278.6099              1295.7351
 Red. masses --      1.3023                 1.3728                 1.3344
 Frc consts  --      1.2469                 1.3223                 1.3200
 IR Inten    --      1.9294                 6.9377                 0.7038

                     37                     38                     39
                      A                      A                      A
 Frequencies --   1323.3192              1345.0268              1364.9184
 Red. masses --      1.3140                 1.2822                 1.4274
 Frc consts  --      1.3557                 1.3666                 1.5668
 IR Inten    --      3.2615                 5.0735                 4.9999

                     40                     41                     42
                      A                      A                      A
 Frequencies --   1369.0125              1399.9789              1418.5368
 Red. masses --      1.4594                 1.4594                 1.5040
 Frc consts  --      1.6115                 1.6853                 1.7831
 IR Inten    --     10.1688                 0.1535                 0.0127

                     43                     44                     45
                      A                      A                      A
 Frequencies --   1442.5297              1491.3841              1501.0775
 Red. masses --      1.4180                 1.0943                 1.0866
 Frc consts  --      1.7385                 1.4341                 1.4425
 IR Inten    --     36.6779                 5.3171                 8.8159

                     46                     47                     48
                      A                      A                      A
 Frequencies --   1503.8039              1514.8066              1520.1699
 Red. masses --      1.1662                 1.0480                 1.0889
 Frc consts  --      1.5539                 1.4169                 1.4827
 IR Inten    --      3.2827                 4.9653                 3.3434

                     49                     50                     51
                      A                      A                      A
 Frequencies --   1531.2491              1535.5322              1555.4647
 Red. masses --      1.0702                 1.0807                 1.0889
 Frc consts  --      1.4784                 1.5014                 1.5522
 IR Inten    --      8.5452                 5.8476                 0.5800

                     52                     53                     54
                      A                      A                      A
 Frequencies --   1819.2410              2956.7850              2984.4339
 Red. masses --     11.0147                 1.0544                 1.1004
 Frc consts  --     21.4785                 5.4311                 5.7747
 IR Inten    --    195.9906                34.7175                47.0826

                     55                     56                     57
                      A                      A                      A
 Frequencies --   2989.4427              3013.7959              3017.0100
 Red. masses --      1.0403                 1.0819                 1.0704
 Frc consts  --      5.4777                 5.7899                 5.7406
 IR Inten    --     85.9370                10.5852                 5.2285

                     58                     59                     60
                      A                      A                      A
 Frequencies --   3023.9228              3027.7327              3031.2835
 Red. masses --      1.0710                 1.0646                 1.1048
 Frc consts  --      5.7699                 5.7501                 5.9813
 IR Inten    --      3.8796                 9.2327                62.9397

                     61                     62                     63
                      A                      A                      A
 Frequencies --   3036.8630              3073.5613              3111.8024
 Red. masses --      1.0677                 1.1010                 1.0939
 Frc consts  --      5.8018                 6.1282                 6.2411
 IR Inten    --     92.3886                50.3389                19.2995

                     64                     65                     66
                      A                      A                      A
 Frequencies --   3117.0551              3118.6128              3136.0317
 Red. masses --      1.0937                 1.0945                 1.0965
 Frc consts  --      6.2607                 6.2717                 6.3536
 IR Inten    --     21.6871                18.2784                32.9540

 - Thermochemistry -
 -------------------
 Temperature   298.150 Kelvin.  Pressure   1.00000 Atm.
 Atom     1 has atomic number  8 and mass  15.99491

 Molecular mass:   142.09938 amu.
 Principal axes and moments of inertia in atomic units:
                           1         2         3
     Eigenvalues --   505.225002931.957533270.29973
           X            0.99994   0.00212   0.01077
           Y           -0.00209   0.99999  -0.00339
           Z           -0.01078   0.00336   0.99994
 This molecule is an asymmetric top.
 Rotational symmetry number  1.
 Warning -- assumption of classical behavior for rotation
           may cause significant error
 Rotational temperatures (Kelvin)      0.17144     0.02954     0.02649
 Rotational constants (GHZ):           3.57215     0.61554     0.55186
 Zero-point vibrational energy     559484.5 (Joules/Mol)
                                  133.72001 (Kcal/Mol)
 Warning -- explicit consideration of  14 degrees of freedom as
           vibrations may cause significant error
 Vibrational temperatures:     79.74   124.64   147.01   185.57   265.14
          (Kelvin)            314.90   349.69   434.04   505.60   597.81
                              611.51   646.49   723.70   798.25   993.81
                             1087.36  1109.72  1197.06  1329.82  1343.95
                             1383.20  1418.47  1454.72  1473.39  1557.24
                             1594.83  1630.21  1654.51  1685.17  1708.12
                             1718.31  1772.00  1792.94  1834.14  1839.63
                             1864.27  1903.96  1935.19  1963.81  1969.70
                             2014.26  2040.96  2075.48  2145.77  2159.72
                             2163.64  2179.47  2187.19  2203.13  2209.29
                             2237.97  2617.48  4254.15  4293.93  4301.14
                             4336.18  4340.80  4350.75  4356.23  4361.34
                             4369.37  4422.17  4477.19  4484.75  4486.99
                             4512.05

 Zero-point correction=                           0.213096 (Hartree/Particle)
 Thermal correction to Energy=                    0.223488
 Thermal correction to Enthalpy=                  0.224432
 Thermal correction to Gibbs Free Energy=         0.176835
 Sum of electronic and zero-point Energies=           -463.506823
 Sum of electronic and thermal Energies=              -463.496432
 Sum of electronic and thermal Enthalpies=            -463.495488
 Sum of electronic and thermal Free Energies=         -463.543085

                     E (Thermal)             CV                S
                      KCal/Mol        Cal/Mol-Kelvin    Cal/Mol-Kelvin
 Total                  140.241             38.296            100.177
 Electronic               0.000              0.000              0.000
 Translational            0.889              2.981             40.765
 Rotational               0.889              2.981             29.961
 Vibrational            138.463             32.334             29.450
 Vibration     1          0.596              1.975              4.614
 Vibration     2          0.601              1.959              3.735
 Vibration     3          0.604              1.947              3.412
 Vibration     4          0.611              1.924              2.961
 Vibration     5          0.631              1.861              2.285
 Vibration     6          0.647              1.812              1.968
 Vibration     7          0.659              1.774              1.780
 Vibration     8          0.694              1.671              1.408
 Vibration     9          0.728              1.572              1.160
 Vibration    10          0.779              1.437              0.907
 Vibration    11          0.787              1.416              0.875
 Vibration    12          0.808              1.362              0.798
 Vibration    13          0.858              1.243              0.651
 Vibration    14          0.910              1.129              0.534

 Normal termination of Gaussian 16 at Thu Feb 22 00:05:03 2024.
