 Gaussian 16, Revision A.03,
 Gaussian 16:  EM64M-G16RevA.03 25-Dec-2016

 ---------------------
 # freq b3lyp/6-31g(d)
 ---------------------

 ---------
 good luck
 ---------
 Symbolic Z-matrix:
 Charge =  0 Multiplicity = 1

                         Standard orientation:
 ---------------------------------------------------------------------
 Center     Atomic      Atomic             Coordinates (Angstroms)
 Number     Number       Type             X           Y           Z
 ---------------------------------------------------------------------
      1          8           0       -0.806033    2.727792   -0.505595
      2          6           0       -0.907548    1.636623    0.023144
      3          6           0       -2.258709    1.039393    0.398739
      4          6           0       -2.399261   -0.394957   -0.143033
      5          6           0       -1.214275   -1.281490    0.261724
      6          8           0       -1.319289   -2.576665   -0.328514
      7          6           0        0.119430   -0.677323   -0.198100
      8          6           0        1.326807   -1.552222    0.182070
      9          6           0        2.652816   -0.928482   -0.276521
     10          6           0        2.823148    0.498722    0.264304
     11          6           0        1.625933    1.386186   -0.103099
     12          6           0        0.301113    0.763504    0.357145
     13          1           0       -2.328336    1.023783    1.497134
     14          1           0       -3.049229    1.696515    0.025792
     15          1           0       -2.452935   -0.379010   -1.239233
     16          1           0       -3.339274   -0.837845    0.214671
     17          1           0       -1.192657   -1.371494    1.363796
     18          1           0       -2.149564   -2.974257   -0.023421
     19          1           0        0.076828   -0.614175   -1.297263
     20          1           0        1.342050   -1.678011    1.276181
     21          1           0        1.196910   -2.550224   -0.247670
     22          1           0        2.679727   -0.904682   -1.375865
     23          1           0        3.492414   -1.559637    0.041103
     24          1           0        3.749788    0.944112   -0.119061
     25          1           0        2.926427    0.460543    1.359259
     26          1           0        1.588119    1.531609   -1.190928
     27          1           0        1.730967    2.386234    0.331098
     28          1           0        0.314619    0.677798    1.459041
 ---------------------------------------------------------------------

 SCF Done:  E(RB3LYP) =  -541.153496181     A.U. after   14 cycles

 The electronic state is 1-A.
 Alpha  occ. eigenvalues --  -19.14957 -19.13596 -10.26914 -10.24132 -10.19594
 Alpha  occ. eigenvalues --  -10.19523 -10.19489 -10.19360 -10.17758 -10.17730
 Alpha  occ. eigenvalues --  -10.17668 -10.17629  -1.03460  -1.02322  -0.84508
 Alpha  occ. eigenvalues --   -0.80142  -0.74955  -0.74386  -0.69804  -0.62596
 Alpha  occ. eigenvalues --   -0.62086  -0.58106  -0.55949  -0.53511  -0.50937
 Alpha  occ. eigenvalues --   -0.47276  -0.46539  -0.45066  -0.44586  -0.43923
 Alpha  occ. eigenvalues --   -0.41851  -0.41553  -0.39971  -0.39291  -0.37667
 Alpha  occ. eigenvalues --   -0.36593  -0.35627  -0.35125  -0.34409  -0.33827
 Alpha  occ. eigenvalues --   -0.33188  -0.31875  -0.30467  -0.29590  -0.27098
 Alpha  occ. eigenvalues --   -0.23633
 Alpha virt. eigenvalues --   -0.01466   0.07065   0.08693   0.09659   0.10084
 Alpha virt. eigenvalues --    0.12996   0.13753   0.14119   0.15450   0.15828
 Alpha virt. eigenvalues --    0.16318   0.17305   0.17984   0.18434   0.18733

 Mulliken charges:
               1
     1  O   -0.449465
     2  C    0.451199
     3  C   -0.350432
     4  C   -0.297796
     5  C    0.145448
     6  O   -0.632199
     7  C   -0.101192
     8  C   -0.261641
     9  C   -0.263112
    10  C   -0.264935
    11  C   -0.252913
    12  C   -0.186947
    13  H    0.154145
    14  H    0.166535
    15  H    0.156979
    16  H    0.130210
    17  H    0.103918
    18  H    0.390770
    19  H    0.134051
    20  H    0.119438
    21  H    0.160865
    22  H    0.131761
    23  H    0.132029
    24  H    0.134106
    25  H    0.125309
    26  H    0.141857
    27  H    0.146812
    28  H    0.135199
 Sum of Mulliken charges =  -0.00000

 Dipole moment (field-independent basis, Debye):
    X=             -1.1534    Y=             -2.1413    Z=              1.8533  Tot=              3.0578
 Quadrupole moment (field-independent basis, Debye-Ang):
   XX=            -66.0276   YY=            -83.4424   ZZ=            -72.3637
   XY=              5.0845   XZ=             -2.4110   YZ=              0.7686

  Exact polarizability: 117.074   1.176 109.684  -1.356  -2.333  85.490
 Approx polarizability: 143.040   2.450 157.139  -1.985  -7.592 142.554

                      1                      2                      3
                      A                      A                      A
 Frequencies --     74.3226                91.8168               150.3982
 Red. masses --      5.5185                 3.1166                 2.6323
 Frc consts  --      0.0180                 0.0155                 0.0351
 IR Inten    --      3.7474                 0.6914                 0.8404

                      4                      5                      6
                      A                      A                      A
 Frequencies --    201.7842               232.7855               276.5056
 Red. masses --      2.5230                 4.8450                 1.7141
 Frc consts  --      0.0605                 0.1547                 0.0772
 IR Inten    --      1.3168                 2.2124                36.8082

                      7                      8                      9
                      A                      A                      A
 Frequencies --    286.8084               303.3492               333.8215
 Red. masses --      1.4085                 1.7918                 3.9946
 Frc consts  --      0.0683                 0.0971                 0.2623
 IR Inten    --     52.9058                11.0068                17.4645

                     10                     11                     12
                      A                      A                      A
 Frequencies --    379.6294               390.2266               433.4090
 Red. masses --      3.5302                 3.1301                 3.7083
 Frc consts  --      0.2998                 0.2808                 0.4104
 IR Inten    --      1.4150                 2.1154                 3.2193

                     13                     14                     15
                      A                      A                      A
 Frequencies --    454.3929               497.3625               512.1582
 Red. masses --      3.2269                 2.2055                 3.4706
 Frc consts  --      0.3926                 0.3214                 0.5364
 IR Inten    --      6.0055                 0.3790                 5.8151

                     16                     17                     18
                      A                      A                      A
 Frequencies --    529.3300               579.6892               699.8440
 Red. masses --      1.7949                 3.4673                 3.8587
 Frc consts  --      0.2963                 0.6865                 1.1135
 IR Inten    --      0.9748                 8.1618                 7.8368

                     19                     20                     21
                      A                      A                      A
 Frequencies --    791.8220               824.1566               845.0238
 Red. masses --      1.9304                 2.0559                 2.4648
 Frc consts  --      0.7131                 0.8227                 1.0370
 IR Inten    --      0.3840                 1.7729                 7.7588

                     22                     23                     24
                      A                      A                      A
 Frequencies --    859.1721               864.2862               913.9164
 Red. masses --      1.7497                 1.9213                 1.7503
 Frc consts  --      0.7610                 0.8456                 0.8613
 IR Inten    --      1.9134                 1.1864                14.3143

                     25                     26                     27
                      A                      A                      A
 Frequencies --    921.7208               967.3256               992.4288
 Red. masses --      1.9602                 2.3761                 2.0255
 Frc consts  --      0.9812                 1.3099                 1.1754
 IR Inten    --      5.3819                 4.6017                 6.8527

                     28                     29                     30
                      A                      A                      A
 Frequencies --   1014.6197              1042.5000              1062.3709
 Red. masses --      1.8920                 1.8994                 1.8755
 Frc consts  --      1.1476                 1.2162                 1.2471
 IR Inten    --      1.5367                 3.2204                18.7658

                     31                     32                     33
                      A                      A                      A
 Frequencies --   1076.4431              1087.3583              1094.6633
 Red. masses --      1.4807                 2.4594                 2.0575
 Frc consts  --      1.0109                 1.7133                 1.4527
 IR Inten    --      1.2007                41.7130                25.6963

                     34                     35                     36
                      A                      A                      A
 Frequencies --   1106.1339              1127.5460              1155.4370
 Red. masses --      2.6477                 1.7318                 2.3233
 Frc consts  --      1.9087                 1.2972                 1.8275
 IR Inten    --      3.4343                22.0778                 2.1258

                     37                     38                     39
                      A                      A                      A
 Frequencies --   1169.5326              1197.3087              1234.1693
 Red. masses --      2.0195                 1.5481                 1.3971
 Frc consts  --      1.6275                 1.3075                 1.2538
 IR Inten    --      4.5950                33.8334                17.6013

                     40                     41                     42
                      A                      A                      A
 Frequencies --   1250.3747              1254.2652              1279.3423
 Red. masses --      1.3688                 1.3381                 1.4686
 Frc consts  --      1.2608                 1.2402                 1.4162
 IR Inten    --     17.6889                 8.1107                 4.4523

                     43                     44                     45
                      A                      A                      A
 Frequencies --   1301.8200              1324.7213              1332.7259
 Red. masses --      1.2756                 1.2886                 1.3492
 Frc consts  --      1.2737                 1.3324                 1.4120
 IR Inten    --     10.2876                 5.3707                 9.7785

                     46                     47                     48
                      A                      A                      A
 Frequencies --   1342.3747              1352.5633              1364.5515
 Red. masses --      1.3788                 1.2454                 1.3212
 Frc consts  --      1.4638                 1.3424                 1.4494
 IR Inten    --     16.7504                 2.9796                 9.1763

                     49                     50                     51
                      A                      A                      A
 Frequencies --   1376.4270              1387.5112              1393.8729
 Red. masses --      1.4264                 1.4212                 1.3673
 Frc consts  --      1.5923                 1.6121                 1.5652
 IR Inten    --      2.3680                 6.9102                 0.3279

                     52                     53                     54
                      A                      A                      A
 Frequencies --   1402.5687              1406.6567              1413.7478
 Red. masses --      1.4905                 1.4848                 1.6868
 Frc consts  --      1.7276                 1.7310                 1.9863
 IR Inten    --      1.7582                 6.1342                 4.6872

                     55                     56                     57
                      A                      A                      A
 Frequencies --   1454.7713              1498.5575              1512.7134
 Red. masses --      1.5680                 1.0929                 1.0894
 Frc consts  --      1.9552                 1.4460                 1.4688
 IR Inten    --      7.3565                 9.8544                 2.3949

                     58                     59                     60
                      A                      A                      A
 Frequencies --   1516.5454              1519.6202              1526.7230
 Red. masses --      1.0929                 1.0815                 1.0953
 Frc consts  --      1.4810                 1.4714                 1.5042
 IR Inten    --      1.5231                 8.6928                 2.5059

                     61                     62                     63
                      A                      A                      A
 Frequencies --   1532.3441              1811.6023              2948.8530
 Red. masses --      1.0995                11.5997                 1.0822
 Frc consts  --      1.5211                22.4297                 5.5445
 IR Inten    --      0.2052               164.7631                35.2452

                     64                     65                     66
                      A                      A                      A
 Frequencies --   2967.5265              3004.1833              3016.6302
 Red. masses --      1.0795                 1.0782                 1.0761
 Frc consts  --      5.6008                 5.7333                 5.7695
 IR Inten    --     13.8721                 3.2086                28.2501

                     67                     68                     69
                      A                      A                      A
 Frequencies --   3019.0003              3025.7034              3028.6861
 Red. masses --      1.0694                 1.0697                 1.0630
 Frc consts  --      5.7427                 5.7699                 5.7453
 IR Inten    --     18.7504                12.8762                59.0040

                     70                     71                     72
                      A                      A                      A
 Frequencies --   3033.7006              3048.9087              3072.2612
 Red. masses --      1.0626                 1.0668                 1.0936
 Frc consts  --      5.7618                 5.8430                 6.0815
 IR Inten    --     43.9122                15.1360                62.8977

                     73                     74                     75
                      A                      A                      A
 Frequencies --   3075.8546              3079.4019              3098.9853
 Red. masses --      1.0993                 1.1010                 1.0995
 Frc consts  --      6.1280                 6.1516                 6.2215
 IR Inten    --     62.0309                39.8362                33.0649

                     76                     77                     78
                      A                      A                      A
 Frequencies --   3108.6213              3121.6795              3741.5588
 Red. masses --      1.0921                 1.0945                 1.0663
 Frc consts  --      6.2177                 6.2839                 8.7946
 IR Inten    --     22.9055                19.0070                11.0781

 - Thermochemistry -
 -------------------
 Temperature   298.150 Kelvin.  Pressure   1.00000 Atm.
 Atom     1 has atomic number  8 and mass  15.99491

 Molecular mass:   168.11503 amu.
 Principal axes and moments of inertia in atomic units:
                           1         2         3
     Eigenvalues --  1562.439991961.858183312.60072
           X            0.99973   0.02255  -0.00467
           Y           -0.02253   0.99974   0.00246
           Z            0.00472  -0.00235   0.99999
 This molecule is an asymmetric top.
 Rotational symmetry number  1.
 Warning -- assumption of classical behavior for rotation
           may cause significant error
 Rotational temperatures (Kelvin)      0.05544     0.04415     0.02615
 Rotational constants (GHZ):           1.15508     0.91991     0.54481
 Zero-point vibrational energy     656292.4 (Joules/Mol)
                                  156.85765 (Kcal/Mol)
 Warning -- explicit consideration of  17 degrees of freedom as
           vibrations may cause significant error
 Vibrational temperatures:    106.93   132.10   216.39   290.32   334.93
          (Kelvin)            397.83   412.65   436.45   480.29   546.20
                              561.45   623.58   653.77   715.59   736.88
                              761.59   834.04  1006.92  1139.26  1185.78
                             1215.80  1236.16  1243.52  1314.92  1326.15
                             1391.77  1427.88  1459.81  1499.93  1528.51
                             1548.76  1564.47  1574.98  1591.48  1622.29
                             1662.42  1682.70  1722.66  1775.69  1799.01
                             1804.61  1840.69  1873.03  1905.98  1917.50
                             1931.38  1946.04  1963.29  1980.37  1996.32
                             2005.47  2017.98  2023.87  2034.07  2093.09
                             2156.09  2176.46  2181.97  2186.39  2196.61
                             2204.70  2606.49  4242.74  4269.61  4322.35
                             4340.26  4343.67  4353.31  4357.60  4364.82
                             4386.70  4420.30  4425.47  4430.57  4458.75
                             4472.61  4491.40  5383.27

 Zero-point correction=                           0.249969 (Hartree/Particle)
 Thermal correction to Energy=                    0.260840
 Thermal correction to Enthalpy=                  0.261784
 Thermal correction to Gibbs Free Energy=         0.213883
 Sum of electronic and zero-point Energies=           -540.903528
 Sum of electronic and thermal Energies=              -540.892656
 Sum of electronic and thermal Enthalpies=            -540.891712
 Sum of electronic and thermal Free Energies=         -540.939613

                     E (Thermal)             CV                S
                      KCal/Mol        Cal/Mol-Kelvin    Cal/Mol-Kelvin
 Total                  163.679             43.883            100.816
 Electronic               0.000              0.000              0.000
 Translational            0.889              2.981             41.266
 Rotational               0.889              2.981             30.697
 Vibrational            161.902             37.921             28.853
 Vibration     1          0.599              1.966              4.035
 Vibration     2          0.602              1.955              3.621
 Vibration     3          0.618              1.902              2.667
 Vibration     4          0.639              1.837              2.117
 Vibration     5          0.654              1.791              1.857
 Vibration     6          0.678              1.717              1.555
 Vibration     7          0.684              1.698              1.493
 Vibration     8          0.695              1.667              1.398
 Vibration     9          0.715              1.608              1.242
 Vibration    10          0.750              1.514              1.041
 Vibration    11          0.758              1.491              0.999
 Vibration    12          0.794              1.397              0.848
 Vibration    13          0.813              1.351              0.783
 Vibration    14          0.853              1.256              0.665
 Vibration    15          0.867              1.223              0.628
 Vibration    16          0.884              1.185              0.589
 Vibration    17          0.936              1.075              0.486

 Normal termination of Gaussian 16 at Sat Feb 24 04:52:36 2024.
