 Gaussian 16, Revision A.03,
 Gaussian 16:  EM64M-G16RevA.03 25-Dec-2016

 ---------------------
 # freq b3lyp/6-31g(d)
 ---------------------

 ---------
 good luck
 ---------
 Symbolic Z-matrix:
 Charge =  0 Multiplicity = 1

                         Standard orientation:
 ---------------------------------------------------------------------
 Center     Atomic      Atomic             Coordinates (Angstroms)
 Number     Number       Type             X           Y           Z
 ---------------------------------------------------------------------
      1          8           0       -2.601272   -1.322004    0.000000
      2          6           0       -1.562458   -0.690216   -0.000000
      3          6           0       -0.837840   -0.248012    1.270522
      4          6           0        0.586378   -0.856606    1.257346
      5          6           0       -0.730974    1.298211    1.257732
      6          6           0        0.035445    1.756316    0.000000
      7          6           0       -0.730974    1.298212   -1.257731
      8          6           0       -0.837841   -0.248011   -1.270522
      9          6           0        0.586377   -0.856606   -1.257347
     10          6           0        1.352487   -0.393981    0.000000
     11          8           0        2.691423   -0.885830   -0.000000
     12          6           0        1.449230    1.139053   -0.000000
     13          1           0       -1.408782   -0.598601    2.135907
     14          1           0        1.139011   -0.546335    2.153008
     15          1           0        0.529545   -1.954913    1.274941
     16          1           0       -0.213097    1.633487    2.166240
     17          1           0       -1.733854    1.744080    1.276492
     18          1           0        0.114954    2.850664    0.000001
     19          1           0       -0.213097    1.633488   -2.166239
     20          1           0       -1.733855    1.744081   -1.276491
     21          1           0       -1.408783   -0.598600   -2.135907
     22          1           0        1.139011   -0.546334   -2.153009
     23          1           0        0.529545   -1.954912   -1.274942
     24          1           0        2.647613   -1.856215   -0.000001
     25          1           0        2.015800    1.461308    0.882673
     26          1           0        2.015800    1.461310   -0.882674
 ---------------------------------------------------------------------

 SCF Done:  E(RB3LYP) =  -539.950051099     A.U. after   14 cycles

 The electronic state is 1-A.
 Alpha  occ. eigenvalues --  -19.14663 -19.13536 -10.26641 -10.24500 -10.19831
 Alpha  occ. eigenvalues --  -10.19753 -10.19752 -10.19372 -10.19371 -10.19230
 Alpha  occ. eigenvalues --  -10.19229 -10.18332  -1.03365  -1.02244  -0.87198
 Alpha  occ. eigenvalues --   -0.78372  -0.77317  -0.75596  -0.68130  -0.65085
 Alpha  occ. eigenvalues --   -0.60752  -0.59851  -0.57288  -0.51870  -0.49382
 Alpha  occ. eigenvalues --   -0.46393  -0.46104  -0.44677  -0.44598  -0.43885
 Alpha  occ. eigenvalues --   -0.42436  -0.41794  -0.40568  -0.40395  -0.36931
 Alpha  occ. eigenvalues --   -0.36629  -0.36502  -0.35486  -0.34312  -0.33148
 Alpha  occ. eigenvalues --   -0.31790  -0.31600  -0.29570  -0.26532  -0.23248
 Alpha virt. eigenvalues --   -0.01298   0.06416   0.07500   0.11748   0.12020
 Alpha virt. eigenvalues --    0.12967   0.13309   0.13377   0.14107   0.15967
 Alpha virt. eigenvalues --    0.16433   0.17837   0.18476   0.19242   0.19301

 Mulliken charges:
               1
     1  O   -0.456991
     2  C    0.453147
     3  C   -0.170179
     4  C   -0.302370
     5  C   -0.281152
     6  C   -0.102453
     7  C   -0.281152
     8  C   -0.170179
     9  C   -0.302370
    10  C    0.318656
    11  O   -0.653040
    12  C   -0.276068
    13  H    0.145081
    14  H    0.149006
    15  H    0.131110
    16  H    0.141273
    17  H    0.145674
    18  H    0.130000
    19  H    0.141273
    20  H    0.145674
    21  H    0.145081
    22  H    0.149006
    23  H    0.131110
    24  H    0.385118
    25  H    0.142372
    26  H    0.142372
 Sum of Mulliken charges =  -0.00000

 Dipole moment (field-independent basis, Debye):
    X=              1.3726    Y=              0.9383    Z=             -0.0000  Tot=              1.6627
 Quadrupole moment (field-independent basis, Debye-Ang):
   XX=            -85.7161   YY=            -68.2001   ZZ=            -68.9144
   XY=             -7.6244   XZ=             -0.0000   YZ=              0.0000

  Exact polarizability: 103.208   1.780  98.314  -0.000  -0.000  94.814
 Approx polarizability: 154.971   8.805 145.163  -0.000  -0.000 137.717

                      1                      2                      3
                      A                      A                      A
 Frequencies --     98.4814               250.7500               275.8870
 Red. masses --      8.1736                 2.4166                 2.3212
 Frc consts  --      0.0467                 0.0895                 0.1041
 IR Inten    --      4.6003                 0.3960                 5.6712

                      4                      5                      6
                      A                      A                      A
 Frequencies --    304.2419               306.1096               367.6353
 Red. masses --      3.0548                 1.1342                 3.5502
 Frc consts  --      0.1666                 0.0626                 0.2827
 IR Inten    --      3.5238                72.5246                24.6577

                      7                      8                      9
                      A                      A                      A
 Frequencies --    367.7754               392.8646               405.9515
 Red. masses --      5.9175                 4.2831                 2.2370
 Frc consts  --      0.4716                 0.3895                 0.2172
 IR Inten    --      1.0034                 0.7871                 2.0286

                     10                     11                     12
                      A                      A                      A
 Frequencies --    450.7922               454.8223               480.2505
 Red. masses --      2.0264                 2.2921                 3.1555
 Frc consts  --      0.2426                 0.2794                 0.4288
 IR Inten    --      3.9890                14.9755                 1.0993

                     13                     14                     15
                      A                      A                      A
 Frequencies --    523.3181               613.8833               633.1843
 Red. masses --      4.7505                 5.5741                 3.5481
 Frc consts  --      0.7665                 1.2377                 0.8381
 IR Inten    --      2.4973                 0.1076                 1.9576

                     16                     17                     18
                      A                      A                      A
 Frequencies --    714.5831               721.8830               789.9072
 Red. masses --      3.3496                 4.3798                 3.6979
 Frc consts  --      1.0077                 1.3447                 1.3594
 IR Inten    --      0.3342                 0.4697                 0.1715

                     19                     20                     21
                      A                      A                      A
 Frequencies --    803.6813               858.0257               902.2190
 Red. masses --      2.8028                 2.6450                 1.5607
 Frc consts  --      1.0666                 1.1473                 0.7485
 IR Inten    --      1.4510                 1.4632                 3.6872

                     22                     23                     24
                      A                      A                      A
 Frequencies --    908.2467               910.3458               942.5310
 Red. masses --      1.5818                 2.2657                 3.1376
 Frc consts  --      0.7688                 1.1063                 1.6423
 IR Inten    --      2.7108                 7.0114                20.3900

                     25                     26                     27
                      A                      A                      A
 Frequencies --    950.7916               981.6707               988.9423
 Red. masses --      2.0962                 2.1245                 2.6529
 Frc consts  --      1.1165                 1.2063                 1.5287
 IR Inten    --      3.6151                 1.2914                13.9729

                     28                     29                     30
                      A                      A                      A
 Frequencies --   1019.6030              1043.4438              1063.4411
 Red. masses --      2.0193                 2.0735                 1.9045
 Frc consts  --      1.2368                 1.3301                 1.2690
 IR Inten    --      0.1423                 2.3402                 5.7429

                     31                     32                     33
                      A                      A                      A
 Frequencies --   1071.4323              1088.7630              1116.5614
 Red. masses --      1.7411                 1.7737                 1.4620
 Frc consts  --      1.1776                 1.2388                 1.0739
 IR Inten    --     33.1148                20.2042                 0.7336

                     34                     35                     36
                      A                      A                      A
 Frequencies --   1129.4064              1148.0746              1156.0653
 Red. masses --      1.1409                 4.0097                 1.1831
 Frc consts  --      0.8575                 3.1138                 0.9316
 IR Inten    --      0.3309                97.4740                 0.3001

                     37                     38                     39
                      A                      A                      A
 Frequencies --   1184.8135              1228.9007              1238.0732
 Red. masses --      1.2183                 1.1043                 1.8658
 Frc consts  --      1.0076                 0.9826                 1.6851
 IR Inten    --      3.7865                 4.0932                 2.9771

                     40                     41                     42
                      A                      A                      A
 Frequencies --   1263.0163              1292.9797              1302.3818
 Red. masses --      1.5154                 1.6743                 1.5529
 Frc consts  --      1.4243                 1.6492                 1.5519
 IR Inten    --      7.7614                 0.7120                 5.2994

                     43                     44                     45
                      A                      A                      A
 Frequencies --   1323.0356              1323.4455              1349.2273
 Red. masses --      1.8714                 1.6306                 1.5003
 Frc consts  --      1.9300                 1.6827                 1.6092
 IR Inten    --     18.7865                 7.1997                 5.3316

                     46                     47                     48
                      A                      A                      A
 Frequencies --   1356.2401              1368.0345              1378.1394
 Red. masses --      1.6148                 1.5444                 1.5673
 Frc consts  --      1.7500                 1.7029                 1.7539
 IR Inten    --      0.4163                 7.2245                 5.1924

                     49                     50                     51
                      A                      A                      A
 Frequencies --   1392.6129              1394.4479              1399.6273
 Red. masses --      1.5479                 1.5422                 1.4972
 Frc consts  --      1.7688                 1.7668                 1.7281
 IR Inten    --      0.1702                 1.1730                14.3123

                     52                     53                     54
                      A                      A                      A
 Frequencies --   1432.8717              1507.8789              1515.9137
 Red. masses --      1.7473                 1.0860                 1.0860
 Frc consts  --      2.1137                 1.4549                 1.4704
 IR Inten    --     20.6316                 0.0131                 4.3654

                     55                     56                     57
                      A                      A                      A
 Frequencies --   1521.5964              1525.2894              1545.8390
 Red. masses --      1.0922                 1.0973                 1.0964
 Frc consts  --      1.4898                 1.5041                 1.5436
 IR Inten    --     11.5582                 5.3393                 0.4064

                     58                     59                     60
                      A                      A                      A
 Frequencies --   1822.0793              3022.4577              3029.1387
 Red. masses --     11.2816                 1.0642                 1.0630
 Frc consts  --     22.0677                 5.7281                 5.7470
 IR Inten    --    213.1414                11.8283                64.5280

                     61                     62                     63
                      A                      A                      A
 Frequencies --   3036.8348              3036.8976              3045.7204
 Red. masses --      1.0596                 1.0640                 1.0643
 Frc consts  --      5.7575                 5.7819                 5.8172
 IR Inten    --     35.9147                 7.7382                24.4099

                     64                     65                     66
                      A                      A                      A
 Frequencies --   3061.0066              3074.2446              3075.9898
 Red. masses --      1.0787                 1.1041                 1.1020
 Frc consts  --      5.9551                 6.1482                 6.1433
 IR Inten    --     67.7550                 0.0890                16.7441

                     67                     68                     69
                      A                      A                      A
 Frequencies --   3077.6817              3080.3261              3089.0235
 Red. masses --      1.1025                 1.1021                 1.1046
 Frc consts  --      6.1530                 6.1612                 6.2100
 IR Inten    --     27.6389                60.6655                47.2278

                     70                     71                     72
                      A                      A                      A
 Frequencies --   3092.4426              3094.4859              3717.7140
 Red. masses --      1.0864                 1.0870                 1.0658
 Frc consts  --      6.1212                 6.1326                 8.6793
 IR Inten    --     40.5177                14.9024                 6.2963

 - Thermochemistry -
 -------------------
 Temperature   298.150 Kelvin.  Pressure   1.00000 Atm.
 Atom     1 has atomic number  8 and mass  15.99491

 Molecular mass:   166.09938 amu.
 Principal axes and moments of inertia in atomic units:
                           1         2         3
     Eigenvalues --  1239.473071850.065382012.66482
           X            0.99918  -0.04049  -0.00000
           Y            0.04049   0.99918   0.00000
           Z            0.00000  -0.00000   1.00000
 This molecule is an asymmetric top.
 Rotational symmetry number  1.
 Warning -- assumption of classical behavior for rotation
           may cause significant error
 Rotational temperatures (Kelvin)      0.06988     0.04682     0.04303
 Rotational constants (GHZ):           1.45606     0.97550     0.89669
 Zero-point vibrational energy     600740.5 (Joules/Mol)
                                  143.58043 (Kcal/Mol)
 Warning -- explicit consideration of  14 degrees of freedom as
           vibrations may cause significant error
 Vibrational temperatures:    141.69   360.77   396.94   437.74   440.42
          (Kelvin)            528.95   529.15   565.24   584.07   648.59
                              654.39   690.97   752.94   883.24   911.01
                             1028.13  1038.63  1136.50  1156.32  1234.51
                             1298.09  1306.76  1309.78  1356.09  1367.98
                             1412.41  1422.87  1466.98  1501.28  1530.05
                             1541.55  1566.49  1606.48  1624.96  1651.82
                             1663.32  1704.68  1768.11  1781.31  1817.20
                             1860.31  1873.84  1903.55  1904.14  1941.24
                             1951.33  1968.30  1982.84  2003.66  2006.30
                             2013.75  2061.58  2169.50  2181.06  2189.24
                             2194.55  2224.12  2621.57  4348.64  4358.25
                             4369.33  4369.42  4382.11  4404.11  4423.15
                             4425.66  4428.10  4431.90  4444.42  4449.34
                             4452.28  5348.96

 Zero-point correction=                           0.228810 (Hartree/Particle)
 Thermal correction to Energy=                    0.237897
 Thermal correction to Enthalpy=                  0.238841
 Thermal correction to Gibbs Free Energy=         0.195342
 Sum of electronic and zero-point Energies=           -539.721241
 Sum of electronic and thermal Energies=              -539.712154
 Sum of electronic and thermal Enthalpies=            -539.711210
 Sum of electronic and thermal Free Energies=         -539.754709

                     E (Thermal)             CV                S
                      KCal/Mol        Cal/Mol-Kelvin    Cal/Mol-Kelvin
 Total                  149.283             39.690             91.550
 Electronic               0.000              0.000              0.000
 Translational            0.889              2.981             41.231
 Rotational               0.889              2.981             29.913
 Vibrational            147.505             33.729             20.407
 Vibration     1          0.604              1.950              3.484
 Vibration     2          0.663              1.762              1.725
 Vibration     3          0.678              1.718              1.559
 Vibration     4          0.695              1.666              1.393
 Vibration     5          0.696              1.662              1.383
 Vibration     6          0.740              1.539              1.090
 Vibration     7          0.740              1.539              1.089
 Vibration     8          0.760              1.485              0.989
 Vibration     9          0.771              1.457              0.941
 Vibration    10          0.810              1.359              0.793
 Vibration    11          0.813              1.350              0.781
 Vibration    12          0.837              1.294              0.709
 Vibration    13          0.878              1.198              0.602
 Vibration    14          0.973              1.002              0.426

 Normal termination of Gaussian 16 at Thu Feb 22 11:19:46 2024.
