 Gaussian 16, Revision A.03,
 Gaussian 16:  EM64M-G16RevA.03 25-Dec-2016

 ---------------------
 # freq b3lyp/6-31g(d)
 ---------------------

 ---------
 good luck
 ---------
 Symbolic Z-matrix:
 Charge =  0 Multiplicity = 1

                         Standard orientation:
 ---------------------------------------------------------------------
 Center     Atomic      Atomic             Coordinates (Angstroms)
 Number     Number       Type             X           Y           Z
 ---------------------------------------------------------------------
      1          8           0       -3.285720   -0.000000    0.026414
      2          6           0       -2.078337   -0.000000    0.041508
      3          6           0       -1.073457   -1.158282    0.041512
      4          6           0       -0.243404   -0.808115   -1.236138
      5          6           0       -0.243405    0.808117   -1.236137
      6          6           0       -1.073457    1.158282    0.041514
      7          6           0       -0.242961    0.784973    1.287313
      8          6           0        1.315920    0.806377    1.151342
      9          6           0        1.832118    1.482184   -0.077066
     10          6           0        1.111036    1.464837   -1.203690
     11          6           0       -0.242961   -0.784975    1.287312
     12          6           0        1.315920   -0.806377    1.151342
     13          6           0        1.832118   -1.482185   -0.077067
     14          6           0        1.111036   -1.464835   -1.203691
     15          1           0       -1.501290   -2.161083    0.032079
     16          1           0       -0.793257   -1.141544   -2.122095
     17          1           0       -0.793257    1.141545   -2.122094
     18          1           0       -1.501291    2.161083    0.032081
     19          1           0       -0.623007    1.272622    2.188890
     20          1           0        1.809428    1.189774    2.049302
     21          1           0        2.811578    1.955419   -0.046978
     22          1           0        1.478933    1.938975   -2.111018
     23          1           0       -0.623007   -1.272625    2.188889
     24          1           0        1.809428   -1.189776    2.049301
     25          1           0        2.811579   -1.955419   -0.046979
     26          1           0        1.478933   -1.938974   -2.111020
 ---------------------------------------------------------------------

 SCF Done:  E(RB3LYP) =  -577.747940390     A.U. after   14 cycles

 The electronic state is 1-A.
 Alpha  occ. eigenvalues --  -19.14003 -10.26719 -10.20422 -10.20411 -10.19729
 Alpha  occ. eigenvalues --  -10.19718 -10.19501 -10.19485 -10.19327 -10.19325
 Alpha  occ. eigenvalues --  -10.18398 -10.18396 -10.18226 -10.18225  -1.03821
 Alpha  occ. eigenvalues --   -0.90107  -0.81016  -0.79587  -0.78938  -0.71564
 Alpha  occ. eigenvalues --   -0.67516  -0.67310  -0.64931  -0.57239  -0.55551
 Alpha  occ. eigenvalues --   -0.53903  -0.53318  -0.52356  -0.47987  -0.47221
 Alpha  occ. eigenvalues --   -0.46106  -0.45422  -0.44288  -0.41401  -0.40358
 Alpha  occ. eigenvalues --   -0.39574  -0.38338  -0.37960  -0.37064  -0.36274
 Alpha  occ. eigenvalues --   -0.34976  -0.34746  -0.34236  -0.30803  -0.29183
 Alpha  occ. eigenvalues --   -0.28970  -0.25109  -0.23685  -0.22432
 Alpha virt. eigenvalues --   -0.00909   0.00449   0.01861   0.05782   0.10687
 Alpha virt. eigenvalues --    0.11400   0.11529   0.13097   0.14264   0.15645
 Alpha virt. eigenvalues --    0.16773   0.16949   0.17020   0.17871   0.18382

 Mulliken charges:
               1
     1  O   -0.442712
     2  C    0.430010
     3  C   -0.167432
     4  C   -0.163023
     5  C   -0.163023
     6  C   -0.167432
     7  C   -0.128565
     8  C   -0.144466
     9  C   -0.090153
    10  C   -0.108151
    11  C   -0.128565
    12  C   -0.144466
    13  C   -0.090153
    14  C   -0.108151
    15  H    0.142924
    16  H    0.141366
    17  H    0.141366
    18  H    0.142924
    19  H    0.142043
    20  H    0.129033
    21  H    0.125481
    22  H    0.127295
    23  H    0.142043
    24  H    0.129033
    25  H    0.125481
    26  H    0.127295
 Sum of Mulliken charges =  -0.00000

 Dipole moment (field-independent basis, Debye):
    X=              3.0069    Y=              0.0000    Z=              0.1638  Tot=              3.0114
 Quadrupole moment (field-independent basis, Debye-Ang):
   XX=            -91.8526   YY=            -79.4882   ZZ=            -74.6101
   XY=              0.0000   XZ=              1.3135   YZ=             -0.0000

  Exact polarizability: 127.493  -0.000 101.498   6.858  -0.000 114.171
 Approx polarizability: 200.853  -0.000 151.035  24.585  -0.000 194.658

                      1                      2                      3
                      A                      A                      A
 Frequencies --    124.5767               227.9052               259.9630
 Red. masses --      7.5438                 4.5099                 2.7733
 Frc consts  --      0.0690                 0.1380                 0.1104
 IR Inten    --      3.2720                 0.6436                 0.0907

                      4                      5                      6
                      A                      A                      A
 Frequencies --    272.2344               383.4918               424.7491
 Red. masses --      5.1411                 2.5544                 5.8836
 Frc consts  --      0.2245                 0.2213                 0.6254
 IR Inten    --      0.2515                 3.2695                 0.4708

                      7                      8                      9
                      A                      A                      A
 Frequencies --    472.4167               476.7195               506.7483
 Red. masses --      5.1066                 3.7145                 5.0490
 Frc consts  --      0.6715                 0.4974                 0.7639
 IR Inten    --      0.1987                 7.0698                 2.1055

                     10                     11                     12
                      A                      A                      A
 Frequencies --    510.8321               526.6654               633.3223
 Red. masses --      6.2422                 4.9564                 5.2712
 Frc consts  --      0.9597                 0.8100                 1.2457
 IR Inten    --      0.5247                 2.4423                 1.1672

                     13                     14                     15
                      A                      A                      A
 Frequencies --    675.1010               687.0068               709.7351
 Red. masses --      3.2017                 2.2920                 2.4333
 Frc consts  --      0.8597                 0.6374                 0.7222
 IR Inten    --      3.0088                 3.6976                29.8269

                     16                     17                     18
                      A                      A                      A
 Frequencies --    725.9615               744.6799               762.6891
 Red. masses --      4.2749                 3.7787                 3.2221
 Frc consts  --      1.3274                 1.2346                 1.1043
 IR Inten    --      2.5465                 0.2717                 0.4606

                     19                     20                     21
                      A                      A                      A
 Frequencies --    789.3664               790.3030               816.1103
 Red. masses --      3.2645                 2.5635                 3.1926
 Frc consts  --      1.1985                 0.9434                 1.2528
 IR Inten    --      0.1077                 3.1521                 7.0049

                     22                     23                     24
                      A                      A                      A
 Frequencies --    828.5218               873.3344               889.0970
 Red. masses --      2.4746                 4.4061                 2.9281
 Frc consts  --      1.0008                 1.9800                 1.3637
 IR Inten    --     15.7704                 0.4105                11.6890

                     25                     26                     27
                      A                      A                      A
 Frequencies --    896.3547               943.4930               964.8918
 Red. masses --      2.5885                 2.3214                 1.5224
 Frc consts  --      1.2254                 1.2175                 0.8351
 IR Inten    --      0.0837                 0.4325                 0.5036

                     28                     29                     30
                      A                      A                      A
 Frequencies --    977.8969               982.7008               989.8196
 Red. masses --      1.3510                 2.1647                 2.4590
 Frc consts  --      0.7612                 1.2317                 1.4195
 IR Inten    --      0.0034                 1.9196                 0.1842

                     31                     32                     33
                      A                      A                      A
 Frequencies --   1036.6725              1040.4165              1050.3255
 Red. masses --      3.6213                 5.6062                 2.1878
 Frc consts  --      2.2929                 3.5754                 1.4221
 IR Inten    --      0.1028                 1.4132                 1.6595

                     34                     35                     36
                      A                      A                      A
 Frequencies --   1052.7384              1080.0634              1096.6403
 Red. masses --      1.9544                 1.8785                 2.1862
 Frc consts  --      1.2762                 1.2911                 1.5490
 IR Inten    --      1.4638                 0.7720                 0.0293

                     37                     38                     39
                      A                      A                      A
 Frequencies --   1130.9980              1147.2706              1157.8930
 Red. masses --      1.4905                 4.9443                 1.2552
 Frc consts  --      1.1233                 3.8343                 0.9915
 IR Inten    --      0.6317                44.2008                 0.7706

                     40                     41                     42
                      A                      A                      A
 Frequencies --   1173.6813              1195.4493              1204.5661
 Red. masses --      1.1469                 1.3622                 1.0781
 Frc consts  --      0.9309                 1.1470                 0.9216
 IR Inten    --      0.0053                 0.2728                 0.4451

                     43                     44                     45
                      A                      A                      A
 Frequencies --   1219.8424              1248.9881              1258.6471
 Red. masses --      1.3501                 1.4058                 1.5311
 Frc consts  --      1.1836                 1.2921                 1.4291
 IR Inten    --      1.7647                 0.5771                 1.0785

                     46                     47                     48
                      A                      A                      A
 Frequencies --   1259.1051              1277.6292              1299.7510
 Red. masses --      1.3468                 1.4393                 1.4687
 Frc consts  --      1.2580                 1.3842                 1.4618
 IR Inten    --      0.0007                 0.0849                 0.4110

                     49                     50                     51
                      A                      A                      A
 Frequencies --   1301.2427              1327.9463              1331.1215
 Red. masses --      1.2612                 1.2990                 1.4124
 Frc consts  --      1.2582                 1.3496                 1.4745
 IR Inten    --      0.0199                 0.7951                 2.0199

                     52                     53                     54
                      A                      A                      A
 Frequencies --   1359.9595              1364.7822              1367.9398
 Red. masses --      1.5069                 1.3466                 1.4704
 Frc consts  --      1.6421                 1.4778                 1.6212
 IR Inten    --      1.3714                 0.0318                 1.5837

                     55                     56                     57
                      A                      A                      A
 Frequencies --   1386.9517              1424.9227              1436.4846
 Red. masses --      1.6587                 1.5539                 1.8374
 Frc consts  --      1.8799                 1.8589                 2.2339
 IR Inten    --      0.1277                 2.1054                 0.0693

                     58                     59                     60
                      A                      A                      A
 Frequencies --   1711.9817              1718.9091              1867.9496
 Red. masses --      6.2011                 5.8709                12.2317
 Frc consts  --     10.7082                10.2202                25.1460
 IR Inten    --      2.1749                 1.0933               333.6119

                     61                     62                     63
                      A                      A                      A
 Frequencies --   3066.4752              3077.0216              3084.1545
 Red. masses --      1.0869                 1.0875                 1.0859
 Frc consts  --      6.0216                 6.0663                 6.0859
 IR Inten    --      5.8220                 3.6490                61.1560

                     64                     65                     66
                      A                      A                      A
 Frequencies --   3089.6192              3097.1772              3109.0347
 Red. masses --      1.0866                 1.0876                 1.0881
 Frc consts  --      6.1112                 6.1470                 6.1969
 IR Inten    --     24.2497                15.9280                72.0788

                     67                     68                     69
                      A                      A                      A
 Frequencies --   3147.4311              3148.8065              3164.2684
 Red. masses --      1.0883                 1.0905                 1.0850
 Frc consts  --      6.3522                 6.3701                 6.4005
 IR Inten    --     30.6695                16.9373                 0.5972

                     70                     71                     72
                      A                      A                      A
 Frequencies --   3165.3704              3186.5705              3188.5392
 Red. masses --      1.0852                 1.0985                 1.0985
 Frc consts  --      6.4066                 6.5720                 6.5799
 IR Inten    --     20.7322                30.9805                50.6118

 - Thermochemistry -
 -------------------
 Temperature   298.150 Kelvin.  Pressure   1.00000 Atm.
 Atom     1 has atomic number  8 and mass  15.99491

 Molecular mass:   184.08882 amu.
 Principal axes and moments of inertia in atomic units:
                           1         2         3
     Eigenvalues --  1411.859062212.308312342.66647
           X            0.99998  -0.00000   0.00552
           Y            0.00000   1.00000  -0.00000
           Z           -0.00552   0.00000   0.99998
 This molecule is an asymmetric top.
 Rotational symmetry number  1.
 Warning -- assumption of classical behavior for rotation
           may cause significant error
 Rotational temperatures (Kelvin)      0.06135     0.03915     0.03697
 Rotational constants (GHZ):           1.27827     0.81577     0.77038
 Zero-point vibrational energy     573741.1 (Joules/Mol)
                                  137.12742 (Kcal/Mol)
 Warning -- explicit consideration of  11 degrees of freedom as
           vibrations may cause significant error
 Vibrational temperatures:    179.24   327.90   374.03   391.68   551.76
          (Kelvin)            611.12   679.70   685.89   729.10   734.97
                              757.75   911.21   971.32   988.45  1021.15
                             1044.50  1071.43  1097.34  1135.72  1137.07
                             1174.20  1192.06  1256.53  1279.21  1289.65
                             1357.48  1388.26  1406.98  1413.89  1424.13
                             1491.54  1496.93  1511.18  1514.66  1553.97
                             1577.82  1627.25  1650.67  1665.95  1688.67
                             1719.98  1733.10  1755.08  1797.02  1810.91
                             1811.57  1838.22  1870.05  1872.20  1910.62
                             1915.19  1956.68  1963.62  1968.16  1995.51
                             2050.15  2066.78  2463.16  2473.13  2687.56
                             4411.97  4427.15  4437.41  4445.27  4456.15
                             4473.21  4528.45  4530.43  4552.68  4554.26
                             4584.76  4587.60

 Zero-point correction=                           0.218526 (Hartree/Particle)
 Thermal correction to Energy=                    0.227151
 Thermal correction to Enthalpy=                  0.228096
 Thermal correction to Gibbs Free Energy=         0.185182
 Sum of electronic and zero-point Energies=           -577.529414
 Sum of electronic and thermal Energies=              -577.520789
 Sum of electronic and thermal Enthalpies=            -577.519845
 Sum of electronic and thermal Free Energies=         -577.562758

                     E (Thermal)             CV                S
                      KCal/Mol        Cal/Mol-Kelvin    Cal/Mol-Kelvin
 Total                  142.540             39.706             90.319
 Electronic               0.000              0.000              0.000
 Translational            0.889              2.981             41.537
 Rotational               0.889              2.981             30.371
 Vibrational            140.762             33.744             18.411
 Vibration     1          0.610              1.928              3.028
 Vibration     2          0.651              1.798              1.895
 Vibration     3          0.668              1.746              1.662
 Vibration     4          0.675              1.724              1.582
 Vibration     5          0.753              1.505              1.025
 Vibration     6          0.787              1.416              0.876
 Vibration     7          0.829              1.311              0.731
 Vibration     8          0.833              1.302              0.719
 Vibration     9          0.862              1.235              0.641
 Vibration    10          0.866              1.226              0.632
 Vibration    11          0.882              1.191              0.595

 Normal termination of Gaussian 16 at Sat Feb 24 02:47:17 2024.
