 Gaussian 16, Revision A.03,
 Gaussian 16:  EM64M-G16RevA.03 25-Dec-2016

 ---------------------
 # freq b3lyp/6-31g(d)
 ---------------------

 ---------
 good luck
 ---------
 Symbolic Z-matrix:
 Charge =  0 Multiplicity = 1

                         Standard orientation:
 ---------------------------------------------------------------------
 Center     Atomic      Atomic             Coordinates (Angstroms)
 Number     Number       Type             X           Y           Z
 ---------------------------------------------------------------------
      1          6           0       -2.840237    0.506409   -0.119273
      2          6           0       -1.413790   -0.045841   -0.270982
      3          6           0       -1.376815   -0.934051   -1.519529
      4          6           0       -0.330739    1.081023   -0.091155
      5          6           0       -0.415189    0.832338    1.442291
      6          6           0       -0.858555   -0.612904    1.084966
      7          6           0        0.403143   -1.454358    0.863368
      8          6           0        1.447047   -0.727263   -0.000241
      9          6           0        1.051713    0.639393   -0.603236
     10          6           0        2.155703    1.679382   -0.353256
     11          8           0        2.541376   -1.215299   -0.206010
     12          1           0       -2.957360    1.156990    0.752657
     13          1           0       -3.561504   -0.314347   -0.018475
     14          1           0       -3.123032    1.088216   -1.005536
     15          1           0       -0.408026   -1.407028   -1.703285
     16          1           0       -1.628337   -0.349596   -2.413732
     17          1           0       -2.119816   -1.737518   -1.436570
     18          1           0       -0.587138    2.079544   -0.466653
     19          1           0       -1.194269    1.418864    1.933273
     20          1           0        0.510531    0.937181    2.020866
     21          1           0       -1.570854   -1.119263    1.747262
     22          1           0        0.185844   -2.418904    0.386303
     23          1           0        0.885840   -1.692656    1.820495
     24          1           0        1.001784    0.474339   -1.689844
     25          1           0        1.948469    2.599366   -0.910910
     26          1           0        2.230489    1.939263    0.708962
     27          1           0        3.122694    1.283170   -0.674454
 ---------------------------------------------------------------------

 SCF Done:  E(RB3LYP) =  -465.900414145     A.U. after   14 cycles

 The electronic state is 1-A.
 Alpha  occ. eigenvalues --  -19.13299 -10.26996 -10.19979 -10.19515 -10.19363
 Alpha  occ. eigenvalues --  -10.19179 -10.19018 -10.18418 -10.17807 -10.17805
 Alpha  occ. eigenvalues --  -10.17690  -1.03335  -0.87922  -0.77768  -0.75700
 Alpha  occ. eigenvalues --   -0.72871  -0.68472  -0.66085  -0.61275  -0.59842
 Alpha  occ. eigenvalues --   -0.54865  -0.49513  -0.47842  -0.47033  -0.45580
 Alpha  occ. eigenvalues --   -0.44281  -0.43780  -0.41449  -0.40809  -0.40350
 Alpha  occ. eigenvalues --   -0.39109  -0.38027  -0.37578  -0.37213  -0.36144
 Alpha  occ. eigenvalues --   -0.35905  -0.33677  -0.31559  -0.30831  -0.29422
 Alpha  occ. eigenvalues --   -0.28656  -0.23342
 Alpha virt. eigenvalues --   -0.01785   0.07526   0.10564   0.11174   0.11618
 Alpha virt. eigenvalues --    0.12499   0.13345   0.13695   0.15254   0.15410
 Alpha virt. eigenvalues --    0.16848   0.17038   0.17810   0.18276   0.18669

 Mulliken charges:
               1
     1  C   -0.465270
     2  C    0.122818
     3  C   -0.475773
     4  C   -0.121422
     5  C   -0.297175
     6  C   -0.116251
     7  C   -0.351828
     8  C    0.430376
     9  C   -0.157186
    10  C   -0.452558
    11  O   -0.458717
    12  H    0.144780
    13  H    0.142668
    14  H    0.142915
    15  H    0.147342
    16  H    0.145585
    17  H    0.145017
    18  H    0.114895
    19  H    0.145590
    20  H    0.135085
    21  H    0.117563
    22  H    0.170249
    23  H    0.169657
    24  H    0.159152
    25  H    0.143016
    26  H    0.145926
    27  H    0.173549
 Sum of Mulliken charges =  -0.00000

 Dipole moment (field-independent basis, Debye):
    X=             -2.5634    Y=              1.0683    Z=              0.3423  Tot=              2.7982
 Quadrupole moment (field-independent basis, Debye-Ang):
   XX=            -76.0252   YY=            -68.4439   ZZ=            -66.3777
   XY=              4.7380   XZ=              0.9578   YZ=             -1.0935

  Exact polarizability: 110.463   0.480  96.711  -0.295  -1.531  91.308
 Approx polarizability: 150.432  -4.213 140.382  -1.817  -1.729 135.980

                      1                      2                      3
                      A                      A                      A
 Frequencies --     58.7991               163.8222               197.7714
 Red. masses --      4.6862                 2.1405                 1.4411
 Frc consts  --      0.0095                 0.0338                 0.0332
 IR Inten    --      4.1341                 0.0939                 0.0055

                      4                      5                      6
                      A                      A                      A
 Frequencies --    207.0408               220.0721               232.3936
 Red. masses --      1.7409                 1.1908                 1.2843
 Frc consts  --      0.0440                 0.0340                 0.0409
 IR Inten    --      0.0793                 0.4948                 0.1649

                      7                      8                      9
                      A                      A                      A
 Frequencies --    270.8841               281.5569               331.3394
 Red. masses --      2.0055                 2.2392                 2.4195
 Frc consts  --      0.0867                 0.1046                 0.1565
 IR Inten    --      2.2434                 0.8051                 2.1459

                     10                     11                     12
                      A                      A                      A
 Frequencies --    371.5965               402.1390               421.7318
 Red. masses --      2.7675                 2.2219                 2.7543
 Frc consts  --      0.2252                 0.2117                 0.2886
 IR Inten    --      0.6372                 0.8528                 0.6195

                     13                     14                     15
                      A                      A                      A
 Frequencies --    456.5847               477.6207               541.6066
 Red. masses --      3.6325                 2.7701                 3.9800
 Frc consts  --      0.4462                 0.3723                 0.6879
 IR Inten    --      8.7107                 0.7713                 0.0594

                     16                     17                     18
                      A                      A                      A
 Frequencies --    581.9434               604.9073               674.3019
 Red. masses --      3.1951                 3.1905                 2.7971
 Frc consts  --      0.6375                 0.6878                 0.7493
 IR Inten    --      0.7000                 0.9755                 0.1392

                     19                     20                     21
                      A                      A                      A
 Frequencies --    702.2033               839.6970               846.8438
 Red. masses --      2.9612                 2.1597                 2.2191
 Frc consts  --      0.8603                 0.8972                 0.9376
 IR Inten    --      1.2811                 2.3170                 0.2202

                     22                     23                     24
                      A                      A                      A
 Frequencies --    874.0021               903.6594               925.6027
 Red. masses --      2.4823                 2.2564                 1.8053
 Frc consts  --      1.1172                 1.0856                 0.9113
 IR Inten    --      1.8171                 3.3858                 2.9957

                     25                     26                     27
                      A                      A                      A
 Frequencies --    946.5047               962.3044               976.5931
 Red. masses --      2.3537                 1.4825                 1.7840
 Frc consts  --      1.2424                 0.8089                 1.0024
 IR Inten    --      0.5062                 2.0360                 2.3301

                     28                     29                     30
                      A                      A                      A
 Frequencies --   1012.7972              1029.8953              1049.2725
 Red. masses --      1.5032                 1.2974                 2.2202
 Frc consts  --      0.9085                 0.8108                 1.4402
 IR Inten    --      4.8095                 2.1453                11.4634

                     31                     32                     33
                      A                      A                      A
 Frequencies --   1055.9900              1082.6697              1105.8833
 Red. masses --      1.6419                 1.5004                 1.7329
 Frc consts  --      1.0787                 1.0362                 1.2486
 IR Inten    --      7.9176                 2.1579                 3.5742

                     34                     35                     36
                      A                      A                      A
 Frequencies --   1114.6700              1151.1712              1182.9461
 Red. masses --      1.2667                 1.9847                 2.2082
 Frc consts  --      0.9273                 1.5497                 1.8206
 IR Inten    --      6.6064                19.2717                15.0550

                     37                     38                     39
                      A                      A                      A
 Frequencies --   1198.0158              1233.6637              1243.0741
 Red. masses --      1.9436                 1.7176                 1.7147
 Frc consts  --      1.6435                 1.5401                 1.5611
 IR Inten    --      1.5343                 6.6200                 0.4297

                     40                     41                     42
                      A                      A                      A
 Frequencies --   1248.0858              1269.8262              1304.0943
 Red. masses --      2.0486                 1.6394                 1.6537
 Frc consts  --      1.8802                 1.5575                 1.6570
 IR Inten    --      5.5545                 1.2711                 0.9329

                     43                     44                     45
                      A                      A                      A
 Frequencies --   1315.7231              1328.9742              1347.4545
 Red. masses --      1.7991                 1.8688                 1.5897
 Frc consts  --      1.8350                 1.9447                 1.7006
 IR Inten    --      2.5117                 1.1105                 3.2525

                     46                     47                     48
                      A                      A                      A
 Frequencies --   1363.1822              1379.5610              1428.4363
 Red. masses --      1.6447                 1.5437                 1.2148
 Frc consts  --      1.8007                 1.7310                 1.4604
 IR Inten    --     15.6709                 0.5372                 5.0513

                     49                     50                     51
                      A                      A                      A
 Frequencies --   1433.4916              1451.7099              1482.4480
 Red. masses --      1.2524                 1.2124                 1.0805
 Frc consts  --      1.5163                 1.5054                 1.3990
 IR Inten    --      3.9996                 3.9378                 7.5029

                     52                     53                     54
                      A                      A                      A
 Frequencies --   1517.3944              1518.6383              1525.3281
 Red. masses --      1.0586                 1.0450                 1.0514
 Frc consts  --      1.4360                 1.4199                 1.4413
 IR Inten    --      2.5579                 0.3782                 3.5170

                     55                     56                     57
                      A                      A                      A
 Frequencies --   1532.4412              1534.5237              1542.8273
 Red. masses --      1.0610                 1.0634                 1.0506
 Frc consts  --      1.4680                 1.4754                 1.4735
 IR Inten    --      2.9163                 4.1022                 6.2391

                     58                     59                     60
                      A                      A                      A
 Frequencies --   1545.6710              1810.8687              3023.1184
 Red. masses --      1.0770                12.4625                 1.0815
 Frc consts  --      1.5160                24.0785                 5.8235
 IR Inten    --      6.7068               159.6477                10.8646

                     61                     62                     63
                      A                      A                      A
 Frequencies --   3038.8748              3044.1669              3046.1551
 Red. masses --      1.0387                 1.0410                 1.0619
 Frc consts  --      5.6517                 5.6836                 5.8056
 IR Inten    --     14.7662                42.4709                15.2843

                     64                     65                     66
                      A                      A                      A
 Frequencies --   3053.3890              3056.7191              3062.9926
 Red. masses --      1.0433                 1.0756                 1.0756
 Frc consts  --      5.7311                 5.9211                 5.9454
 IR Inten    --     15.4376                46.6294                68.8111

                     67                     68                     69
                      A                      A                      A
 Frequencies --   3070.4401              3082.0088              3093.9620
 Red. masses --      1.0799                 1.1014                 1.1020
 Frc consts  --      5.9986                 6.1641                 6.2152
 IR Inten    --     18.4642                17.4439                 0.6423

                     70                     71                     72
                      A                      A                      A
 Frequencies --   3100.7708              3116.7745              3121.4489
 Red. masses --      1.1013                 1.1021                 1.1008
 Frc consts  --      6.2390                 6.3080                 6.3192
 IR Inten    --     52.4554                27.2325                29.0884

                     73                     74                     75
                      A                      A                      A
 Frequencies --   3128.4865              3138.9973              3145.0601
 Red. masses --      1.0972                 1.0970                 1.1013
 Frc consts  --      6.3270                 6.3685                 6.4185
 IR Inten    --     32.8250                43.1325                12.1780

 - Thermochemistry -
 -------------------
 Temperature   298.150 Kelvin.  Pressure   1.00000 Atm.
 Atom     1 has atomic number  6 and mass  12.00000

 Molecular mass:   152.12012 amu.
 Principal axes and moments of inertia in atomic units:
                           1         2         3
     Eigenvalues --  1024.313601908.117592109.55337
           X            0.99913   0.04068   0.00898
           Y           -0.04078   0.99911   0.01086
           Z           -0.00853  -0.01122   0.99990
 This molecule is an asymmetric top.
 Rotational symmetry number  1.
 Warning -- assumption of classical behavior for rotation
           may cause significant error
 Rotational temperatures (Kelvin)      0.08456     0.04539     0.04106
 Rotational constants (GHZ):           1.76190     0.94582     0.85551
 Zero-point vibrational energy     634843.9 (Joules/Mol)
                                  151.73134 (Kcal/Mol)
 Warning -- explicit consideration of  17 degrees of freedom as
           vibrations may cause significant error
 Vibrational temperatures:     84.60   235.70   284.55   297.89   316.63
          (Kelvin)            334.36   389.74   405.10   476.72   534.64
                              578.59   606.78   656.92   687.19   779.25
                              837.29   870.33   970.17  1010.31  1208.14
                             1218.42  1257.49  1300.16  1331.74  1361.81
                             1384.54  1405.10  1457.19  1481.79  1509.67
                             1519.33  1557.72  1591.12  1603.76  1656.28
                             1702.00  1723.68  1774.97  1788.51  1795.72
                             1827.00  1876.30  1893.03  1912.10  1938.69
                             1961.32  1984.88  2055.20  2062.47  2088.69
                             2132.91  2183.19  2184.98  2194.61  2204.84
                             2207.84  2219.78  2223.88  2605.44  4349.59
                             4372.26  4379.88  4382.74  4393.15  4397.94
                             4406.96  4417.68  4434.32  4451.52  4461.32
                             4484.34  4491.07  4501.19  4516.32  4525.04

 Zero-point correction=                           0.241799 (Hartree/Particle)
 Thermal correction to Energy=                    0.252549
 Thermal correction to Enthalpy=                  0.253493
 Thermal correction to Gibbs Free Energy=         0.206518
 Sum of electronic and zero-point Energies=           -465.658615
 Sum of electronic and thermal Energies=              -465.647865
 Sum of electronic and thermal Enthalpies=            -465.646921
 Sum of electronic and thermal Free Energies=         -465.693896

                     E (Thermal)             CV                S
                      KCal/Mol        Cal/Mol-Kelvin    Cal/Mol-Kelvin
 Total                  158.477             43.281             98.867
 Electronic               0.000              0.000              0.000
 Translational            0.889              2.981             40.968
 Rotational               0.889              2.981             29.801
 Vibrational            156.699             37.320             28.097
 Vibration     1          0.596              1.974              4.497
 Vibration     2          0.623              1.887              2.505
 Vibration     3          0.637              1.843              2.154
 Vibration     4          0.641              1.830              2.070
 Vibration     5          0.647              1.811              1.958
 Vibration     6          0.653              1.791              1.860
 Vibration     7          0.675              1.727              1.591
 Vibration     8          0.681              1.708              1.524
 Vibration     9          0.714              1.613              1.254
 Vibration    10          0.743              1.531              1.073
 Vibration    11          0.768              1.466              0.955
 Vibration    12          0.784              1.423              0.886
 Vibration    13          0.815              1.346              0.776
 Vibration    14          0.834              1.300              0.717
 Vibration    15          0.897              1.158              0.562
 Vibration    16          0.939              1.070              0.482
 Vibration    17          0.963              1.021              0.441

 Normal termination of Gaussian 16 at Thu Feb 22 10:12:43 2024.
