 Gaussian 16, Revision A.03,
 Gaussian 16:  EM64M-G16RevA.03 25-Dec-2016

 ---------------------
 # freq b3lyp/6-31g(d)
 ---------------------

 ---------
 good luck
 ---------
 Symbolic Z-matrix:
 Charge =  0 Multiplicity = 1

                         Standard orientation:
 ---------------------------------------------------------------------
 Center     Atomic      Atomic             Coordinates (Angstroms)
 Number     Number       Type             X           Y           Z
 ---------------------------------------------------------------------
      1          8           0       -4.349938   -1.335107   -1.637281
      2          6           0       -3.591986   -0.727777   -0.904628
      3          6           0       -3.108193   -1.253987    0.442128
      4          6           0       -1.562044   -1.337833    0.416085
      5          6           0       -3.557466   -0.261064    1.542167
      6          6           0       -2.953163    1.126419    1.255489
      7          6           0       -3.456755    1.630986   -0.111269
      8          6           0       -3.016859    0.646839   -1.224204
      9          6           0       -1.471812    0.540042   -1.238903
     10          6           0       -0.925707    0.046429    0.132635
     11          6           0        0.605713   -0.005692    0.105443
     12          6           0        1.353758    1.155361   -0.148051
     13          6           0        2.743220    1.158605   -0.183969
     14          6           0        3.482003   -0.023525    0.046380
     15          7           0        4.875432   -0.025532    0.047398
     16          6           0        5.575396   -1.298548    0.035452
     17          6           0        5.581612    1.136174   -0.465251
     18          6           0        2.737666   -1.196291    0.287495
     19          6           0        1.344175   -1.176142    0.318971
     20          6           0       -1.414832    1.027324    1.237608
     21          1           0       -3.543822   -2.245333    0.603842
     22          1           0       -1.214102   -1.722966    1.383825
     23          1           0       -1.248667   -2.060633   -0.348152
     24          1           0       -4.653473   -0.204583    1.575148
     25          1           0       -3.224833   -0.629246    2.522223
     26          1           0       -3.262512    1.829186    2.040308
     27          1           0       -3.047924    2.627824   -0.326233
     28          1           0       -4.550393    1.727885   -0.104262
     29          1           0       -3.393518    0.963176   -2.202466
     30          1           0       -1.146129   -0.147355   -2.030228
     31          1           0       -1.050680    1.522938   -1.483998
     32          1           0        0.843554    2.097960   -0.330761
     33          1           0        3.251639    2.092142   -0.394360
     34          1           0        6.651609   -1.114096    0.057806
     35          1           0        5.347291   -1.909354   -0.853869
     36          1           0        5.325417   -1.889498    0.924111
     37          1           0        5.352813    1.350064   -1.522538
     38          1           0        5.340111    2.030674    0.120426
     39          1           0        6.656914    0.967889   -0.374998
     40          1           0        3.240387   -2.141801    0.453073
     41          1           0        0.836823   -2.115600    0.511943
     42          1           0       -0.982715    2.021973    1.071071
     43          1           0       -1.044662    0.684407    2.213079
 ---------------------------------------------------------------------

 SCF Done:  E(RB3LYP) =  -829.749885342     A.U. after   14 cycles

 The electronic state is 1-A.
 Alpha  occ. eigenvalues --  -19.12654 -14.35053 -10.25736 -10.22127 -10.21742
 Alpha  occ. eigenvalues --  -10.21707 -10.20038 -10.19008 -10.18840 -10.18773
 Alpha  occ. eigenvalues --  -10.18674 -10.18642 -10.18554 -10.18475 -10.18063
 Alpha  occ. eigenvalues --  -10.17978 -10.17952 -10.17888 -10.17747 -10.17605
 Alpha  occ. eigenvalues --   -1.02460  -0.94356  -0.87301  -0.83700  -0.78253
 Alpha  occ. eigenvalues --   -0.77509  -0.75899  -0.74249  -0.72590  -0.71836
 Alpha  occ. eigenvalues --   -0.67278  -0.65714  -0.64126  -0.60590  -0.59193
 Alpha  occ. eigenvalues --   -0.58616  -0.57025  -0.55486  -0.52465  -0.50026
 Alpha  occ. eigenvalues --   -0.47736  -0.47018  -0.46289  -0.45720  -0.45126
 Alpha  occ. eigenvalues --   -0.44107  -0.43702  -0.43400  -0.42593  -0.42062
 Alpha  occ. eigenvalues --   -0.41548  -0.41186  -0.40725  -0.39918  -0.39709
 Alpha  occ. eigenvalues --   -0.39277  -0.38917  -0.38024  -0.36166  -0.35998
 Alpha  occ. eigenvalues --   -0.35584  -0.35128  -0.34044  -0.33384  -0.33180
 Alpha  occ. eigenvalues --   -0.32295  -0.29870  -0.29349  -0.28936  -0.27181
 Alpha  occ. eigenvalues --   -0.24092  -0.22403  -0.18637
 Alpha virt. eigenvalues --   -0.00425   0.00766   0.02008   0.07242   0.08547
 Alpha virt. eigenvalues --    0.10534   0.11189   0.12097   0.12338   0.12761
 Alpha virt. eigenvalues --    0.13287   0.13654   0.14199   0.14826   0.15277

 Mulliken charges:
               1
     1  O   -0.462389
     2  C    0.454757
     3  C   -0.166642
     4  C   -0.306333
     5  C   -0.279502
     6  C   -0.094963
     7  C   -0.280404
     8  C   -0.166228
     9  C   -0.287230
    10  C    0.001470
    11  C    0.167380
    12  C   -0.196500
    13  C   -0.198739
    14  C    0.371321
    15  N   -0.474501
    16  C   -0.309074
    17  C   -0.309630
    18  C   -0.202437
    19  C   -0.203966
    20  C   -0.272068
    21  H    0.139967
    22  H    0.140696
    23  H    0.147794
    24  H    0.142558
    25  H    0.136924
    26  H    0.124275
    27  H    0.135009
    28  H    0.142693
    29  H    0.140468
    30  H    0.148016
    31  H    0.137591
    32  H    0.118732
    33  H    0.120824
    34  H    0.152997
    35  H    0.149001
    36  H    0.163235
    37  H    0.148857
    38  H    0.162817
    39  H    0.153239
    40  H    0.120696
    41  H    0.123148
    42  H    0.131175
    43  H    0.134965
 Sum of Mulliken charges =  -0.00000

 Dipole moment (field-independent basis, Debye):
    X=              3.9747    Y=              1.5371    Z=              1.5750  Tot=              4.5433
 Quadrupole moment (field-independent basis, Debye-Ang):
   XX=           -114.7515   YY=           -115.9629   ZZ=           -124.7301
   XY=             -8.5791   XZ=            -12.0018   YZ=             -5.3161

  Exact polarizability: 268.955  -0.115 174.342  -1.895  -6.668 135.812
 Approx polarizability: 342.137   4.849 291.468   4.618 -12.486 211.299

                      1                      2                      3
                      A                      A                      A
 Frequencies --     35.0947                43.9953                77.0025
 Red. masses --      3.2388                 4.3116                 2.9570
 Frc consts  --      0.0024                 0.0049                 0.0103
 IR Inten    --      0.4179                 1.1375                 0.0537

                      4                      5                      6
                      A                      A                      A
 Frequencies --     83.2584               103.3963               120.7605
 Red. masses --      6.1194                 4.0085                 2.7155
 Frc consts  --      0.0250                 0.0252                 0.0233
 IR Inten    --      1.9529                 2.2626                 9.5626

                      7                      8                      9
                      A                      A                      A
 Frequencies --    156.0281               187.8736               222.3318
 Red. masses --      1.6659                 1.6419                 3.6742
 Frc consts  --      0.0239                 0.0341                 0.1070
 IR Inten    --      0.4338                 0.0161                 0.5860

                     10                     11                     12
                      A                      A                      A
 Frequencies --    239.4975               251.5601               279.0088
 Red. masses --      1.9120                 2.2407                 2.3837
 Frc consts  --      0.0646                 0.0835                 0.1093
 IR Inten    --      0.5233                 2.9032                 0.8673

                     13                     14                     15
                      A                      A                      A
 Frequencies --    301.5968               346.7982               371.5922
 Red. masses --      2.2661                 3.0687                 4.0717
 Frc consts  --      0.1214                 0.2174                 0.3313
 IR Inten    --      0.3080                 0.5103                 1.1741

                     16                     17                     18
                      A                      A                      A
 Frequencies --    375.7913               411.2992               419.3976
 Red. masses --      3.7394                 3.5538                 2.7476
 Frc consts  --      0.3111                 0.3542                 0.2847
 IR Inten    --      1.8398                 0.9878                 0.2472

                     19                     20                     21
                      A                      A                      A
 Frequencies --    425.6263               442.5413               445.2968
 Red. masses --      3.0605                 2.5077                 2.3274
 Frc consts  --      0.3267                 0.2894                 0.2719
 IR Inten    --      0.1160                 3.7163                 4.0742

                     22                     23                     24
                      A                      A                      A
 Frequencies --    458.5665               475.6839               497.5095
 Red. masses --      2.1647                 3.9103                 3.4101
 Frc consts  --      0.2682                 0.5213                 0.4973
 IR Inten    --      0.0386                 3.5054                 5.2626

                     25                     26                     27
                      A                      A                      A
 Frequencies --    556.3275               574.7497               617.1379
 Red. masses --      2.2966                 3.7945                 5.3877
 Frc consts  --      0.4188                 0.7385                 1.2090
 IR Inten    --      9.1973                 4.0213                 0.1519

                     28                     29                     30
                      A                      A                      A
 Frequencies --    635.8679               660.1799               676.3291
 Red. masses --      3.6647                 6.7495                 4.5654
 Frc consts  --      0.8730                 1.7332                 1.2304
 IR Inten    --      1.4645                 0.5382                 0.0583

                     31                     32                     33
                      A                      A                      A
 Frequencies --    719.2080               741.0072               768.9564
 Red. masses --      3.9726                 4.0811                 4.6746
 Frc consts  --      1.2107                 1.3203                 1.6285
 IR Inten    --      3.2290                 0.7646                 0.6838

                     34                     35                     36
                      A                      A                      A
 Frequencies --    789.0546               803.1822               815.1148
 Red. masses --      3.7807                 2.8316                 1.2705
 Frc consts  --      1.3869                 1.0763                 0.4974
 IR Inten    --      1.0003                 1.2053                 0.8969

                     37                     38                     39
                      A                      A                      A
 Frequencies --    828.4914               859.1451               872.2235
 Red. masses --      1.8710                 2.6475                 3.5649
 Frc consts  --      0.7567                 1.1514                 1.5979
 IR Inten    --     43.6547                 0.6041                 0.7912

                     40                     41                     42
                      A                      A                      A
 Frequencies --    895.4170               904.0220               913.1002
 Red. masses --      1.5978                 1.5834                 2.1490
 Frc consts  --      0.7548                 0.7624                 1.0556
 IR Inten    --      2.6242                 0.1832                 4.3323

                     43                     44                     45
                      A                      A                      A
 Frequencies --    942.3536               946.7144               958.1155
 Red. masses --      1.4173                 1.4633                 1.8643
 Frc consts  --      0.7415                 0.7727                 1.0084
 IR Inten    --      0.9780                 0.5542                 0.2436

                     46                     47                     48
                      A                      A                      A
 Frequencies --    972.3744               978.1217               984.7658
 Red. masses --      3.1583                 2.3018                 2.1617
 Frc consts  --      1.7594                 1.2975                 1.2351
 IR Inten    --     26.5902                 1.1603                 1.5147

                     49                     50                     51
                      A                      A                      A
 Frequencies --   1017.1845              1020.9342              1050.7291
 Red. masses --      2.0609                 3.9011                 2.2421
 Frc consts  --      1.2563                 2.3957                 1.4584
 IR Inten    --      2.6232                 1.7518                 0.2597

                     52                     53                     54
                      A                      A                      A
 Frequencies --   1056.1028              1070.9233              1078.8470
 Red. masses --      3.5284                 1.9741                 1.8669
 Frc consts  --      2.3187                 1.3339                 1.2802
 IR Inten    --      0.9122                 4.2888                24.1914

                     55                     56                     57
                      A                      A                      A
 Frequencies --   1090.5635              1095.8096              1123.7136
 Red. masses --      1.5256                 1.7550                 1.4487
 Frc consts  --      1.0690                 1.2416                 1.0778
 IR Inten    --     23.9344                 0.7936                 0.5714

                     58                     59                     60
                      A                      A                      A
 Frequencies --   1135.6186              1151.0192              1156.8845
 Red. masses --      1.2807                 1.2327                 1.3613
 Frc consts  --      0.9731                 0.9622                 1.0734
 IR Inten    --      0.2028                 0.7470                50.0534

                     61                     62                     63
                      A                      A                      A
 Frequencies --   1162.2866              1173.6544              1206.1151
 Red. masses --      1.1485                 1.4277                 1.8725
 Frc consts  --      0.9142                 1.1587                 1.6049
 IR Inten    --      0.0122                 0.1652                28.8684

                     64                     65                     66
                      A                      A                      A
 Frequencies --   1209.6413              1234.6879              1241.7154
 Red. masses --      1.1585                 1.9168                 1.8523
 Frc consts  --      0.9988                 1.7217                 1.6827
 IR Inten    --      1.8744                11.9403                10.2634

                     67                     68                     69
                      A                      A                      A
 Frequencies --   1252.7816              1268.4106              1274.1536
 Red. masses --      1.4579                 1.5474                 1.6367
 Frc consts  --      1.3481                 1.4668                 1.5656
 IR Inten    --     18.5072                 3.0338                 6.4344

                     70                     71                     72
                      A                      A                      A
 Frequencies --   1281.9539              1297.5047              1306.6697
 Red. masses --      2.6959                 1.4566                 1.6297
 Frc consts  --      2.6104                 1.4448                 1.6394
 IR Inten    --     36.4145                 0.5762                 0.8566

                     73                     74                     75
                      A                      A                      A
 Frequencies --   1328.8435              1338.4884              1350.9726
 Red. masses --      1.5847                 1.8050                 1.5757
 Frc consts  --      1.6488                 1.9053                 1.6944
 IR Inten    --      4.0225                11.7336                 3.6803

                     76                     77                     78
                      A                      A                      A
 Frequencies --   1353.0404              1359.1854              1376.6680
 Red. masses --      2.3069                 1.5767                 1.6843
 Frc consts  --      2.4883                 1.7162                 1.8807
 IR Inten    --      2.5779                 0.8483                 8.9792

                     79                     80                     81
                      A                      A                      A
 Frequencies --   1382.4049              1387.6381              1388.6452
 Red. masses --      1.8126                 3.2864                 1.4844
 Frc consts  --      2.0409                 3.7284                 1.6865
 IR Inten    --      2.0760               187.5091                 2.0999

                     82                     83                     84
                      A                      A                      A
 Frequencies --   1395.1240              1399.8646              1410.6692
 Red. masses --      1.5192                 1.5501                 1.4643
 Frc consts  --      1.7422                 1.7898                 1.7168
 IR Inten    --      3.7144                 2.6450                 2.1304

                     85                     86                     87
                      A                      A                      A
 Frequencies --   1463.7741              1481.1623              1508.9801
 Red. masses --      1.6307                 1.6485                 1.0897
 Frc consts  --      2.0586                 2.1308                 1.4620
 IR Inten    --      0.3270                 2.0162                 2.3342

                     88                     89                     90
                      A                      A                      A
 Frequencies --   1511.8422              1512.1697              1513.5351
 Red. masses --      1.1160                 1.0469                 1.1697
 Frc consts  --      1.5029                 1.4105                 1.5787
 IR Inten    --      4.0751                 3.6192                16.6094

                     91                     92                     93
                      A                      A                      A
 Frequencies --   1519.4567              1522.3598              1526.4507
 Red. masses --      1.0638                 1.0930                 1.0931
 Frc consts  --      1.4470                 1.4924                 1.5007
 IR Inten    --     16.6427                 8.2315                 6.0013

                     94                     95                     96
                      A                      A                      A
 Frequencies --   1542.6462              1542.8946              1558.9950
 Red. masses --      1.0814                 1.0751                 1.0620
 Frc consts  --      1.5162                 1.5079                 1.5208
 IR Inten    --      3.2122                 1.5419                54.8353

                     97                     98                     99
                      A                      A                      A
 Frequencies --   1576.1553              1611.0455              1678.2219
 Red. masses --      2.3082                 5.7517                 5.4656
 Frc consts  --      3.3784                 8.7955                 9.0696
 IR Inten    --    189.9732                 6.2416               110.7567

                    100                    101                    102
                      A                      A                      A
 Frequencies --   1820.0421              2987.9516              2996.2221
 Red. masses --     11.2061                 1.0529                 1.0573
 Frc consts  --     21.8709                 5.5384                 5.5922
 IR Inten    --    244.8685                71.2845               102.8902

                    103                    104                    105
                      A                      A                      A
 Frequencies --   3030.4316              3031.7077              3032.9630
 Red. masses --      1.0664                 1.0594                 1.0602
 Frc consts  --      5.7701                 5.7369                 5.7460
 IR Inten    --     10.6921                 8.8131                35.8760

                    106                    107                    108
                      A                      A                      A
 Frequencies --   3036.6569              3044.0643              3052.9647
 Red. masses --      1.0625                 1.0616                 1.0762
 Frc consts  --      5.7725                 5.7959                 5.9099
 IR Inten    --     35.2148                49.5342                76.2672

                    109                    110                    111
                      A                      A                      A
 Frequencies --   3069.4405              3073.6038              3074.6149
 Red. masses --      1.1051                 1.1041                 1.1044
 Frc consts  --      6.1346                 6.1453                 6.1509
 IR Inten    --      4.3976                51.8399                20.7180

                    112                    113                    114
                      A                      A                      A
 Frequencies --   3074.7352              3076.1421              3079.1941
 Red. masses --      1.0847                 1.0860                 1.1037
 Frc consts  --      6.0418                 6.0549                 6.1658
 IR Inten    --     19.4988                55.0814                41.9016

                    115                    116                    117
                      A                      A                      A
 Frequencies --   3083.3136              3086.0214              3088.1291
 Red. masses --      1.1045                 1.0861                 1.0866
 Frc consts  --      6.1864                 6.0940                 6.1056
 IR Inten    --     37.4608                43.2150                24.4638

                    118                    119                    120
                      A                      A                      A
 Frequencies --   3136.0891              3147.3998              3180.0211
 Red. masses --      1.0989                 1.0961                 1.0878
 Frc consts  --      6.3678                 6.3974                 6.4811
 IR Inten    --      2.8985                51.8549                21.2787

                    121                    122                    123
                      A                      A                      A
 Frequencies --   3206.3949              3225.6561              3228.5019
 Red. masses --      1.0865                 1.0904                 1.0916
 Frc consts  --      6.5813                 6.6848                 6.7036
 IR Inten    --     13.0823                20.7511                14.4081

 - Thermochemistry -
 -------------------
 Temperature   298.150 Kelvin.  Pressure   1.00000 Atm.
 Atom     1 has atomic number  8 and mass  15.99491

 Molecular mass:   269.17796 amu.
 Principal axes and moments of inertia in atomic units:
                           1         2         3
     Eigenvalues --  1843.75924********************
           X            0.99994  -0.00697  -0.00846
           Y            0.00632   0.99720  -0.07449
           Z            0.00895   0.07443   0.99719
 This molecule is an asymmetric top.
 Rotational symmetry number  1.
 Warning -- assumption of classical behavior for rotation
           may cause significant error
 Rotational temperatures (Kelvin)      0.04698     0.00768     0.00741
 Rotational constants (GHZ):           0.97884     0.15993     0.15448
 Zero-point vibrational energy     996159.5 (Joules/Mol)
                                  238.08784 (Kcal/Mol)
 Warning -- explicit consideration of  27 degrees of freedom as
           vibrations may cause significant error
 Vibrational temperatures:     50.49    63.30   110.79   119.79   148.76
          (Kelvin)            173.75   224.49   270.31   319.89   344.58
                              361.94   401.43   433.93   498.97   534.64
                              540.68   591.77   603.42   612.38   636.72
                              640.68   659.77   684.40   715.81   800.43
                              826.94   887.92   914.87   949.85   973.09
                             1034.78  1066.14  1106.36  1135.27  1155.60
                             1172.77  1192.01  1236.12  1254.94  1288.31
                             1300.69  1313.75  1355.84  1362.11  1378.51
                             1399.03  1407.30  1416.86  1463.50  1468.90
                             1511.76  1519.50  1540.82  1552.22  1569.08
                             1576.63  1616.77  1633.90  1656.06  1664.50
                             1672.27  1688.63  1735.33  1740.40  1776.44
                             1786.55  1802.47  1824.96  1833.22  1844.45
                             1866.82  1880.01  1911.91  1925.79  1943.75
                             1946.72  1955.56  1980.72  1988.97  1996.50
                             1997.95  2007.27  2014.09  2029.64  2106.04
                             2131.06  2171.09  2175.20  2175.67  2177.64
                             2186.16  2190.34  2196.22  2219.52  2219.88
                             2243.05  2267.74  2317.94  2414.59  2618.63
                             4299.00  4310.90  4360.12  4361.95  4363.76
                             4369.07  4379.73  4392.54  4416.24  4422.23
                             4423.69  4423.86  4425.88  4430.27  4436.20
                             4440.10  4443.13  4512.13  4528.41  4575.34
                             4613.29  4641.00  4645.09

 Zero-point correction=                           0.379417 (Hartree/Particle)
 Thermal correction to Energy=                    0.396392
 Thermal correction to Enthalpy=                  0.397336
 Thermal correction to Gibbs Free Energy=         0.334842
 Sum of electronic and zero-point Energies=           -829.370468
 Sum of electronic and thermal Energies=              -829.353493
 Sum of electronic and thermal Enthalpies=            -829.352549
 Sum of electronic and thermal Free Energies=         -829.415043

                     E (Thermal)             CV                S
                      KCal/Mol        Cal/Mol-Kelvin    Cal/Mol-Kelvin
 Total                  248.740             69.725            131.530
 Electronic               0.000              0.000              0.000
 Translational            0.889              2.981             42.670
 Rotational               0.889              2.981             33.852
 Vibrational            246.962             63.763             55.009
 Vibration     1          0.594              1.982              5.518
 Vibration     2          0.595              1.980              5.071
 Vibration     3          0.599              1.964              3.966
 Vibration     4          0.600              1.961              3.813
 Vibration     5          0.605              1.946              3.389
 Vibration     6          0.609              1.932              3.088
 Vibration     7          0.620              1.896              2.597
 Vibration     8          0.633              1.857              2.249
 Vibration     9          0.648              1.807              1.940
 Vibration    10          0.657              1.780              1.807
 Vibration    11          0.664              1.760              1.720
 Vibration    12          0.679              1.712              1.540
 Vibration    13          0.694              1.671              1.408
 Vibration    14          0.725              1.582              1.181
 Vibration    15          0.743              1.531              1.073
 Vibration    16          0.747              1.522              1.056
 Vibration    17          0.775              1.446              0.922
 Vibration    18          0.782              1.428              0.894
 Vibration    19          0.787              1.414              0.873
 Vibration    20          0.802              1.377              0.819
 Vibration    21          0.805              1.371              0.810
 Vibration    22          0.817              1.342              0.770
 Vibration    23          0.832              1.304              0.722
 Vibration    24          0.853              1.256              0.664
 Vibration    25          0.912              1.126              0.531
 Vibration    26          0.931              1.086              0.495
 Vibration    27          0.977              0.996              0.421

 Normal termination of Gaussian 16 at Fri Feb 23 20:58:39 2024.
