 Gaussian 16, Revision A.03,
 Gaussian 16:  EM64M-G16RevA.03 25-Dec-2016

 ---------------------
 # freq b3lyp/6-31g(d)
 ---------------------

 ---------
 good luck
 ---------
 Symbolic Z-matrix:
 Charge =  0 Multiplicity = 1

                         Standard orientation:
 ---------------------------------------------------------------------
 Center     Atomic      Atomic             Coordinates (Angstroms)
 Number     Number       Type             X           Y           Z
 ---------------------------------------------------------------------
      1          8           0        4.349156   -1.337542   -1.635919
      2          6           0        3.591927   -0.728860   -0.903627
      3          6           0        3.016996    0.645457   -1.224868
      4          6           0        1.471901    0.538405   -1.239569
      5          6           0        3.456628    1.631066   -0.113219
      6          6           0        2.952992    1.128198    1.254157
      7          6           0        3.557474   -0.258821    1.542697
      8          6           0        3.108451   -1.253211    0.443974
      9          6           0        1.562261   -1.337349    0.417846
     10          6           0        0.925767    0.046480    0.132568
     11          6           0       -0.605656   -0.005800    0.105233
     12          6           0       -1.353752    1.155195   -0.148437
     13          6           0       -2.743215    1.158373   -0.184458
     14          6           0       -3.481914   -0.023792    0.045983
     15          7           0       -4.875211   -0.025771    0.046497
     16          6           0       -5.581240    1.136523   -0.464904
     17          6           0       -5.575667   -1.298511    0.036559
     18          6           0       -2.737552   -1.196525    0.287398
     19          6           0       -1.344077   -1.176278    0.318963
     20          6           0        1.414678    1.028850    1.236279
     21          1           0        3.393618    0.960531   -2.203553
     22          1           0        1.050586    1.520909   -1.485955
     23          1           0        1.146449   -0.150096   -2.030024
     24          1           0        3.047692    2.627573   -0.329513
     25          1           0        4.550254    1.728123   -0.106207
     26          1           0        3.262157    1.832036    2.038091
     27          1           0        4.653472   -0.202089    1.575690
     28          1           0        3.224844   -0.625775    2.523215
     29          1           0        3.544160   -2.244317    0.606958
     30          1           0        1.249211   -2.061119   -0.345597
     31          1           0        1.214183   -1.721350    1.385990
     32          1           0       -0.843595    2.097838   -0.331153
     33          1           0       -3.251746    2.091855   -0.394938
     34          1           0       -5.339646    2.030486    0.121661
     35          1           0       -6.656568    0.968268   -0.375077
     36          1           0       -5.352238    1.351437   -1.521925
     37          1           0       -5.346972   -1.911194   -0.851330
     38          1           0       -5.326812   -1.887877    0.926655
     39          1           0       -6.651828   -1.113612    0.057443
     40          1           0       -3.240262   -2.142030    0.453101
     41          1           0       -0.836690   -2.115665    0.512266
     42          1           0        1.044495    0.687160    2.212181
     43          1           0        0.982463    2.023245    1.068443
 ---------------------------------------------------------------------

 SCF Done:  E(RB3LYP) =  -829.749885706     A.U. after   14 cycles

 The electronic state is 1-A.
 Alpha  occ. eigenvalues --  -19.12653 -14.35054 -10.25735 -10.22126 -10.21744
 Alpha  occ. eigenvalues --  -10.21710 -10.20037 -10.19007 -10.18840 -10.18772
 Alpha  occ. eigenvalues --  -10.18673 -10.18641 -10.18554 -10.18474 -10.18062
 Alpha  occ. eigenvalues --  -10.17977 -10.17950 -10.17886 -10.17745 -10.17604
 Alpha  occ. eigenvalues --   -1.02459  -0.94358  -0.87300  -0.83698  -0.78252
 Alpha  occ. eigenvalues --   -0.77508  -0.75898  -0.74249  -0.72589  -0.71838
 Alpha  occ. eigenvalues --   -0.67277  -0.65715  -0.64126  -0.60588  -0.59192
 Alpha  occ. eigenvalues --   -0.58615  -0.57024  -0.55484  -0.52465  -0.50025
 Alpha  occ. eigenvalues --   -0.47738  -0.47017  -0.46289  -0.45719  -0.45124
 Alpha  occ. eigenvalues --   -0.44106  -0.43702  -0.43399  -0.42593  -0.42062
 Alpha  occ. eigenvalues --   -0.41547  -0.41185  -0.40728  -0.39917  -0.39709
 Alpha  occ. eigenvalues --   -0.39277  -0.38917  -0.38027  -0.36163  -0.35997
 Alpha  occ. eigenvalues --   -0.35583  -0.35128  -0.34042  -0.33384  -0.33179
 Alpha  occ. eigenvalues --   -0.32295  -0.29870  -0.29347  -0.28935  -0.27180
 Alpha  occ. eigenvalues --   -0.24090  -0.22403  -0.18633
 Alpha virt. eigenvalues --   -0.00425   0.00768   0.02012   0.07243   0.08547
 Alpha virt. eigenvalues --    0.10534   0.11189   0.12098   0.12336   0.12760
 Alpha virt. eigenvalues --    0.13287   0.13654   0.14200   0.14826   0.15279

 Mulliken charges:
               1
     1  O   -0.462393
     2  C    0.454742
     3  C   -0.166219
     4  C   -0.287227
     5  C   -0.280379
     6  C   -0.094978
     7  C   -0.279478
     8  C   -0.166629
     9  C   -0.306356
    10  C    0.001485
    11  C    0.167370
    12  C   -0.196519
    13  C   -0.198765
    14  C    0.371373
    15  N   -0.474525
    16  C   -0.309627
    17  C   -0.309070
    18  C   -0.202429
    19  C   -0.203967
    20  C   -0.272087
    21  H    0.140466
    22  H    0.137592
    23  H    0.148021
    24  H    0.135003
    25  H    0.142674
    26  H    0.124265
    27  H    0.142538
    28  H    0.136918
    29  H    0.139965
    30  H    0.147805
    31  H    0.140700
    32  H    0.118723
    33  H    0.120827
    34  H    0.162788
    35  H    0.153243
    36  H    0.148910
    37  H    0.149060
    38  H    0.163188
    39  H    0.153009
    40  H    0.120702
    41  H    0.123141
    42  H    0.134964
    43  H    0.131173
 Sum of Mulliken charges =  -0.00000

 Dipole moment (field-independent basis, Debye):
    X=             -3.9773    Y=              1.5405    Z=              1.5756  Tot=              4.5469
 Quadrupole moment (field-independent basis, Debye-Ang):
   XX=           -114.7189   YY=           -115.9770   ZZ=           -124.7217
   XY=              8.5908   XZ=             11.9813   YZ=             -5.3207

  Exact polarizability: 268.962   0.113 174.354   1.889  -6.676 135.811
 Approx polarizability: 342.145  -4.859 291.491  -4.606 -12.499 211.290

                      1                      2                      3
                      A                      A                      A
 Frequencies --     35.2994                43.9488                77.2141
 Red. masses --      3.2440                 4.3003                 2.9525
 Frc consts  --      0.0024                 0.0049                 0.0104
 IR Inten    --      0.4188                 1.1465                 0.0535

                      4                      5                      6
                      A                      A                      A
 Frequencies --     83.2274               103.2752               120.2444
 Red. masses --      6.1256                 3.9715                 2.7274
 Frc consts  --      0.0250                 0.0250                 0.0232
 IR Inten    --      1.9575                 2.3492                 9.4295

                      7                      8                      9
                      A                      A                      A
 Frequencies --    156.0915               188.1726               222.2856
 Red. masses --      1.6728                 1.6463                 3.6611
 Frc consts  --      0.0240                 0.0343                 0.1066
 IR Inten    --      0.4230                 0.0159                 0.5759

                     10                     11                     12
                      A                      A                      A
 Frequencies --    239.5466               251.4843               279.0142
 Red. masses --      1.9080                 2.2346                 2.3837
 Frc consts  --      0.0645                 0.0833                 0.1093
 IR Inten    --      0.5154                 2.8708                 0.8658

                     13                     14                     15
                      A                      A                      A
 Frequencies --    301.5660               346.7175               371.6261
 Red. masses --      2.2668                 3.0684                 4.0748
 Frc consts  --      0.1215                 0.2173                 0.3316
 IR Inten    --      0.3042                 0.5081                 1.1694

                     16                     17                     18
                      A                      A                      A
 Frequencies --    375.7852               411.2960               419.3547
 Red. masses --      3.7417                 3.5551                 2.7466
 Frc consts  --      0.3113                 0.3543                 0.2846
 IR Inten    --      1.8384                 0.9894                 0.2448

                     19                     20                     21
                      A                      A                      A
 Frequencies --    425.6838               442.4932               445.2802
 Red. masses --      3.0621                 2.5227                 2.3168
 Frc consts  --      0.3269                 0.2910                 0.2707
 IR Inten    --      0.1154                 3.6789                 4.0878

                     22                     23                     24
                      A                      A                      A
 Frequencies --    458.5172               475.6820               497.5448
 Red. masses --      2.1639                 3.9100                 3.4108
 Frc consts  --      0.2680                 0.5213                 0.4975
 IR Inten    --      0.0394                 3.5117                 5.2637

                     25                     26                     27
                      A                      A                      A
 Frequencies --    556.3677               574.7553               617.0920
 Red. masses --      2.2955                 3.7991                 5.3884
 Frc consts  --      0.4187                 0.7394                 1.2089
 IR Inten    --      9.1944                 3.9804                 0.1525

                     28                     29                     30
                      A                      A                      A
 Frequencies --    635.8673               660.1658               676.3602
 Red. masses --      3.6645                 6.7503                 4.5649
 Frc consts  --      0.8730                 1.7333                 1.2304
 IR Inten    --      1.4670                 0.5380                 0.0593

                     31                     32                     33
                      A                      A                      A
 Frequencies --    719.1951               741.0179               768.9663
 Red. masses --      3.9726                 4.0819                 4.6749
 Frc consts  --      1.2106                 1.3206                 1.6287
 IR Inten    --      3.2288                 0.7581                 0.6787

                     34                     35                     36
                      A                      A                      A
 Frequencies --    789.0817               803.1910               815.1490
 Red. masses --      3.7804                 2.8324                 1.2705
 Frc consts  --      1.3869                 1.0766                 0.4974
 IR Inten    --      1.0008                 1.2094                 0.9286

                     37                     38                     39
                      A                      A                      A
 Frequencies --    828.4996               859.2019               872.1929
 Red. masses --      1.8702                 2.6472                 3.5650
 Frc consts  --      0.7563                 1.1514                 1.5979
 IR Inten    --     43.6333                 0.6045                 0.7902

                     40                     41                     42
                      A                      A                      A
 Frequencies --    895.4258               904.0307               913.1220
 Red. masses --      1.5978                 1.5833                 2.1492
 Frc consts  --      0.7548                 0.7624                 1.0558
 IR Inten    --      2.6214                 0.1838                 4.3369

                     43                     44                     45
                      A                      A                      A
 Frequencies --    942.3668               946.7539               958.0891
 Red. masses --      1.4186                 1.4635                 1.8614
 Frc consts  --      0.7422                 0.7729                 1.0067
 IR Inten    --      0.9771                 0.5480                 0.2448

                     46                     47                     48
                      A                      A                      A
 Frequencies --    972.4004               978.1430               984.7578
 Red. masses --      3.1594                 2.3015                 2.1615
 Frc consts  --      1.7601                 1.2974                 1.2350
 IR Inten    --     26.4961                 1.1772                 1.5121

                     49                     50                     51
                      A                      A                      A
 Frequencies --   1017.1938              1020.9178              1050.7303
 Red. masses --      2.0613                 3.8999                 2.2421
 Frc consts  --      1.2566                 2.3949                 1.4584
 IR Inten    --      2.6231                 1.7433                 0.2599

                     52                     53                     54
                      A                      A                      A
 Frequencies --   1056.0883              1070.8964              1078.8681
 Red. masses --      3.5294                 1.9731                 1.8678
 Frc consts  --      2.3193                 1.3332                 1.2809
 IR Inten    --      0.9140                 4.3696                24.1181

                     55                     56                     57
                      A                      A                      A
 Frequencies --   1090.6120              1095.8116              1123.7252
 Red. masses --      1.5254                 1.7548                 1.4486
 Frc consts  --      1.0690                 1.2415                 1.0777
 IR Inten    --     24.0004                 0.7963                 0.5705

                     58                     59                     60
                      A                      A                      A
 Frequencies --   1135.6416              1151.2292              1156.7832
 Red. masses --      1.2809                 1.2327                 1.3602
 Frc consts  --      0.9733                 0.9625                 1.0724
 IR Inten    --      0.2057                 0.7311                49.4167

                     61                     62                     63
                      A                      A                      A
 Frequencies --   1162.2767              1173.6876              1206.1528
 Red. masses --      1.1486                 1.4273                 1.8716
 Frc consts  --      0.9142                 1.1584                 1.6042
 IR Inten    --      0.0123                 0.1653                28.8591

                     64                     65                     66
                      A                      A                      A
 Frequencies --   1209.6432              1234.6710              1241.7068
 Red. masses --      1.1588                 1.9173                 1.8522
 Frc consts  --      0.9990                 1.7220                 1.6826
 IR Inten    --      1.9041                11.9423                10.2937

                     67                     68                     69
                      A                      A                      A
 Frequencies --   1252.7719              1268.3826              1274.1958
 Red. masses --      1.4572                 1.5470                 1.6365
 Frc consts  --      1.3475                 1.4663                 1.5654
 IR Inten    --     18.5676                 3.0559                 6.3958

                     70                     71                     72
                      A                      A                      A
 Frequencies --   1282.0932              1297.5460              1306.6711
 Red. masses --      2.6967                 1.4578                 1.6299
 Frc consts  --      2.6117                 1.4461                 1.6397
 IR Inten    --     36.5282                 0.6064                 0.8559

                     73                     74                     75
                      A                      A                      A
 Frequencies --   1328.8389              1338.4477              1351.0187
 Red. masses --      1.5847                 1.8047                 1.5779
 Frc consts  --      1.6487                 1.9048                 1.6969
 IR Inten    --      4.0259                11.7190                 3.6677

                     76                     77                     78
                      A                      A                      A
 Frequencies --   1353.0272              1359.1720              1376.7361
 Red. masses --      2.2991                 1.5766                 1.6849
 Frc consts  --      2.4798                 1.7161                 1.8815
 IR Inten    --      2.5597                 0.8476                 8.9107

                     79                     80                     81
                      A                      A                      A
 Frequencies --   1382.4263              1387.8265              1388.6609
 Red. masses --      1.8135                 3.2851                 1.4848
 Frc consts  --      2.0420                 3.7280                 1.6869
 IR Inten    --      2.0421               187.9065                 2.0569

                     82                     83                     84
                      A                      A                      A
 Frequencies --   1395.1241              1399.8681              1410.6730
 Red. masses --      1.5194                 1.5505                 1.4643
 Frc consts  --      1.7424                 1.7901                 1.7168
 IR Inten    --      3.8444                 2.6910                 2.1735

                     85                     86                     87
                      A                      A                      A
 Frequencies --   1463.8026              1481.2006              1508.9810
 Red. masses --      1.6298                 1.6493                 1.0896
 Frc consts  --      2.0576                 2.1320                 1.4619
 IR Inten    --      0.3272                 2.0340                 2.3184

                     88                     89                     90
                      A                      A                      A
 Frequencies --   1511.8569              1512.1206              1513.5790
 Red. masses --      1.1148                 1.0472                 1.1708
 Frc consts  --      1.5013                 1.4108                 1.5803
 IR Inten    --      3.9040                 3.6430                16.7399

                     91                     92                     93
                      A                      A                      A
 Frequencies --   1519.4070              1522.3573              1526.4491
 Red. masses --      1.0635                 1.0930                 1.0931
 Frc consts  --      1.4465                 1.4925                 1.5007
 IR Inten    --     16.5463                 8.2454                 6.0038

                     94                     95                     96
                      A                      A                      A
 Frequencies --   1542.6807              1542.9639              1559.0602
 Red. masses --      1.0862                 1.0705                 1.0621
 Frc consts  --      1.5230                 1.5015                 1.5210
 IR Inten    --      2.4265                 2.3313                54.8362

                     97                     98                     99
                      A                      A                      A
 Frequencies --   1576.1879              1610.9869              1678.2288
 Red. masses --      2.3090                 5.7516                 5.4645
 Frc consts  --      3.3797                 8.7947                 9.0679
 IR Inten    --    190.4611                 6.2278               111.0922

                    100                    101                    102
                      A                      A                      A
 Frequencies --   1819.9943              2987.9412              2996.2211
 Red. masses --     11.2058                 1.0528                 1.0572
 Frc consts  --     21.8691                 5.5380                 5.5919
 IR Inten    --    244.8473                71.5762               102.5621

                    103                    104                    105
                      A                      A                      A
 Frequencies --   3030.4215              3031.7030              3032.9562
 Red. masses --      1.0664                 1.0594                 1.0602
 Frc consts  --      5.7702                 5.7369                 5.7459
 IR Inten    --     10.5880                 9.0506                35.5631

                    106                    107                    108
                      A                      A                      A
 Frequencies --   3036.6287              3044.0548              3052.9445
 Red. masses --      1.0625                 1.0616                 1.0762
 Frc consts  --      5.7723                 5.7958                 5.9099
 IR Inten    --     35.4221                49.4953                76.2936

                    109                    110                    111
                      A                      A                      A
 Frequencies --   3069.4186              3073.5933              3074.2019
 Red. masses --      1.1051                 1.1041                 1.0846
 Frc consts  --      6.1345                 6.1452                 6.0395
 IR Inten    --      4.3776                52.9256                18.0663

                    112                    113                    114
                      A                      A                      A
 Frequencies --   3074.6292              3075.6066              3079.1645
 Red. masses --      1.1045                 1.0862                 1.1037
 Frc consts  --      6.1519                 6.0536                 6.1656
 IR Inten    --     20.6735                55.6447                42.0712

                    115                    116                    117
                      A                      A                      A
 Frequencies --   3083.3122              3086.0046              3088.1056
 Red. masses --      1.1045                 1.0861                 1.0866
 Frc consts  --      6.1864                 6.0940                 6.1055
 IR Inten    --     37.3257                43.1863                24.4886

                    118                    119                    120
                      A                      A                      A
 Frequencies --   3136.1316              3147.4728              3179.8463
 Red. masses --      1.0988                 1.0960                 1.0878
 Frc consts  --      6.3675                 6.3973                 6.4804
 IR Inten    --      2.8557                51.9039                21.2841

                    121                    122                    123
                      A                      A                      A
 Frequencies --   3206.2659              3225.4677              3228.3931
 Red. masses --      1.0865                 1.0904                 1.0916
 Frc consts  --      6.5807                 6.6840                 6.7032
 IR Inten    --     13.0972                20.6263                14.5174

 - Thermochemistry -
 -------------------
 Temperature   298.150 Kelvin.  Pressure   1.00000 Atm.
 Atom     1 has atomic number  8 and mass  15.99491

 Molecular mass:   269.17796 amu.
 Principal axes and moments of inertia in atomic units:
                           1         2         3
     Eigenvalues --  1843.96532********************
           X            0.99994   0.00698   0.00844
           Y           -0.00633   0.99721  -0.07443
           Z           -0.00893   0.07437   0.99719
 This molecule is an asymmetric top.
 Rotational symmetry number  1.
 Warning -- assumption of classical behavior for rotation
           may cause significant error
 Rotational temperatures (Kelvin)      0.04697     0.00768     0.00741
 Rotational constants (GHZ):           0.97873     0.15994     0.15448
 Zero-point vibrational energy     996154.3 (Joules/Mol)
                                  238.08660 (Kcal/Mol)
 Warning -- explicit consideration of  27 degrees of freedom as
           vibrations may cause significant error
 Vibrational temperatures:     50.79    63.23   111.09   119.75   148.59
          (Kelvin)            173.00   224.58   270.74   319.82   344.65
                              361.83   401.44   433.89   498.85   534.69
                              540.67   591.76   603.36   612.46   636.65
                              640.66   659.70   684.40   715.86   800.49
                              826.94   887.86   914.87   949.83   973.13
                             1034.76  1066.16  1106.37  1135.31  1155.61
                             1172.82  1192.03  1236.20  1254.89  1288.32
                             1300.70  1313.78  1355.86  1362.17  1378.48
                             1399.07  1407.33  1416.85  1463.51  1468.87
                             1511.77  1519.48  1540.78  1552.25  1569.15
                             1576.63  1616.79  1633.93  1656.36  1664.35
                             1672.26  1688.67  1735.38  1740.41  1776.42
                             1786.54  1802.46  1824.92  1833.28  1844.65
                             1866.88  1880.01  1911.90  1925.73  1943.81
                             1946.70  1955.55  1980.82  1989.00  1996.77
                             1997.97  2007.27  2014.10  2029.64  2106.09
                             2131.12  2171.09  2175.22  2175.60  2177.70
                             2186.09  2190.33  2196.22  2219.57  2219.98
                             2243.14  2267.78  2317.85  2414.60  2618.57
                             4298.98  4310.89  4360.10  4361.94  4363.75
                             4369.03  4379.72  4392.51  4416.21  4422.22
                             4423.09  4423.71  4425.11  4430.23  4436.20
                             4440.07  4443.10  4512.19  4528.51  4575.09
                             4613.10  4640.73  4644.94

 Zero-point correction=                           0.379415 (Hartree/Particle)
 Thermal correction to Energy=                    0.396390
 Thermal correction to Enthalpy=                  0.397334
 Thermal correction to Gibbs Free Energy=         0.334843
 Sum of electronic and zero-point Energies=           -829.370471
 Sum of electronic and thermal Energies=              -829.353496
 Sum of electronic and thermal Enthalpies=            -829.352551
 Sum of electronic and thermal Free Energies=         -829.415043

                     E (Thermal)             CV                S
                      KCal/Mol        Cal/Mol-Kelvin    Cal/Mol-Kelvin
 Total                  248.739             69.724            131.524
 Electronic               0.000              0.000              0.000
 Translational            0.889              2.981             42.670
 Rotational               0.889              2.981             33.852
 Vibrational            246.961             63.763             55.003
 Vibration     1          0.594              1.982              5.507
 Vibration     2          0.595              1.980              5.073
 Vibration     3          0.599              1.964              3.960
 Vibration     4          0.600              1.961              3.813
 Vibration     5          0.605              1.947              3.392
 Vibration     6          0.609              1.932              3.096
 Vibration     7          0.620              1.896              2.597
 Vibration     8          0.633              1.856              2.246
 Vibration     9          0.648              1.807              1.940
 Vibration    10          0.657              1.780              1.806
 Vibration    11          0.663              1.760              1.720
 Vibration    12          0.679              1.712              1.540
 Vibration    13          0.694              1.671              1.408
 Vibration    14          0.725              1.582              1.181
 Vibration    15          0.743              1.530              1.073
 Vibration    16          0.747              1.522              1.056
 Vibration    17          0.775              1.446              0.922
 Vibration    18          0.782              1.428              0.894
 Vibration    19          0.788              1.414              0.873
 Vibration    20          0.802              1.377              0.819
 Vibration    21          0.805              1.371              0.810
 Vibration    22          0.817              1.342              0.770
 Vibration    23          0.832              1.304              0.722
 Vibration    24          0.853              1.255              0.664
 Vibration    25          0.912              1.126              0.531
 Vibration    26          0.931              1.086              0.495
 Vibration    27          0.977              0.996              0.421

 Normal termination of Gaussian 16 at Fri Feb 23 21:08:36 2024.
