 Gaussian 16, Revision A.03,
 Gaussian 16:  EM64M-G16RevA.03 25-Dec-2016

 ---------------------
 # freq b3lyp/6-31g(d)
 ---------------------

 ---------
 good luck
 ---------
 Symbolic Z-matrix:
 Charge =  0 Multiplicity = 1

                         Standard orientation:
 ---------------------------------------------------------------------
 Center     Atomic      Atomic             Coordinates (Angstroms)
 Number     Number       Type             X           Y           Z
 ---------------------------------------------------------------------
      1          8           0       -4.240637    2.183467    0.022513
      2          6           0       -3.536192    1.191720    0.017267
      3          6           0       -3.059644    0.495893   -1.253895
      4          6           0       -1.510872    0.509109   -1.267664
      5          6           0       -3.561582   -0.967992   -1.229704
      6          6           0       -3.011980   -1.675876    0.023202
      7          6           0       -3.527386   -0.956431    1.284052
      8          6           0       -3.024914    0.507470    1.281266
      9          6           0       -1.476286    0.520565    1.252768
     10          6           0       -0.927875   -0.202078   -0.011918
     11          6           0        0.603666   -0.141078   -0.034475
     12          6           0        1.268747    1.095578   -0.050438
     13          6           0        2.654558    1.200439   -0.069883
     14          6           0        3.473601    0.049445   -0.084652
     15          7           0        4.863216    0.142090   -0.141351
     16          6           0        5.492576    1.429473    0.099645
     17          6           0        5.655893   -1.049321    0.109322
     18          6           0        2.813213   -1.195606   -0.052920
     19          6           0        1.421706   -1.277276   -0.034169
     20          6           0       -1.470155   -1.653436    0.002329
     21          1           0       -3.459836    1.037824   -2.117055
     22          1           0       -1.148220    0.007659   -2.174817
     23          1           0       -1.151675    1.543948   -1.316252
     24          1           0       -3.225070   -1.482228   -2.140190
     25          1           0       -4.659246   -0.993441   -1.233434
     26          1           0       -3.355174   -2.718642    0.032686
     27          1           0       -3.166353   -1.462497    2.189729
     28          1           0       -4.624557   -0.981481    1.317781
     29          1           0       -3.401525    1.057302    2.150027
     30          1           0       -1.089164    0.027028    2.154161
     31          1           0       -1.116041    1.555740    1.282398
     32          1           0        0.694734    2.018903   -0.042243
     33          1           0        3.096498    2.189747   -0.072970
     34          1           0        5.166461    2.168330   -0.641138
     35          1           0        6.574607    1.321495   -0.002305
     36          1           0        5.278414    1.835640    1.102248
     37          1           0        5.496125   -1.471882    1.115274
     38          1           0        5.428678   -1.830359   -0.625102
     39          1           0        6.714516   -0.801636    0.005606
     40          1           0        3.380966   -2.118431   -0.042552
     41          1           0        0.980531   -2.268238   -0.013381
     42          1           0       -1.108769   -2.194601   -0.882330
     43          1           0       -1.085757   -2.186136    0.882403
 ---------------------------------------------------------------------

 SCF Done:  E(RB3LYP) =  -829.750024377     A.U. after   14 cycles

 The electronic state is 1-A.
 Alpha  occ. eigenvalues --  -19.12665 -14.35031 -10.25754 -10.22105 -10.21700
 Alpha  occ. eigenvalues --  -10.21697 -10.20042 -10.19093 -10.18770 -10.18763
 Alpha  occ. eigenvalues --  -10.18642 -10.18636 -10.18475 -10.18461 -10.18061
 Alpha  occ. eigenvalues --  -10.18022 -10.17966 -10.17875 -10.17710 -10.17600
 Alpha  occ. eigenvalues --   -1.02481  -0.94333  -0.87307  -0.83691  -0.78246
 Alpha  occ. eigenvalues --   -0.77465  -0.75966  -0.74201  -0.72596  -0.71792
 Alpha  occ. eigenvalues --   -0.67178  -0.65767  -0.64283  -0.59773  -0.59734
 Alpha  occ. eigenvalues --   -0.58834  -0.56887  -0.55463  -0.52508  -0.50009
 Alpha  occ. eigenvalues --   -0.47654  -0.47100  -0.46275  -0.45538  -0.44821
 Alpha  occ. eigenvalues --   -0.44477  -0.43595  -0.43454  -0.42733  -0.42161
 Alpha  occ. eigenvalues --   -0.41530  -0.41329  -0.40677  -0.39737  -0.39596
 Alpha  occ. eigenvalues --   -0.39418  -0.38739  -0.38034  -0.36260  -0.35962
 Alpha  occ. eigenvalues --   -0.35837  -0.34962  -0.33541  -0.33399  -0.33244
 Alpha  occ. eigenvalues --   -0.32432  -0.30316  -0.29265  -0.28664  -0.27227
 Alpha  occ. eigenvalues --   -0.24070  -0.22409  -0.18634
 Alpha virt. eigenvalues --   -0.00378   0.00703   0.02021   0.07318   0.08544
 Alpha virt. eigenvalues --    0.10469   0.11264   0.12191   0.12284   0.12681
 Alpha virt. eigenvalues --    0.13138   0.13902   0.14126   0.14729   0.15392

 Mulliken charges:
               1
     1  O   -0.462595
     2  C    0.453659
     3  C   -0.166541
     4  C   -0.287093
     5  C   -0.279178
     6  C   -0.095671
     7  C   -0.279192
     8  C   -0.166492
     9  C   -0.286934
    10  C    0.001497
    11  C    0.166597
    12  C   -0.198802
    13  C   -0.198965
    14  C    0.371095
    15  N   -0.474292
    16  C   -0.309836
    17  C   -0.308861
    18  C   -0.202457
    19  C   -0.203588
    20  C   -0.291607
    21  H    0.140608
    22  H    0.141627
    23  H    0.144721
    24  H    0.136815
    25  H    0.142159
    26  H    0.123650
    27  H    0.136601
    28  H    0.142190
    29  H    0.140464
    30  H    0.141042
    31  H    0.144550
    32  H    0.122864
    33  H    0.121963
    34  H    0.163717
    35  H    0.153108
    36  H    0.148603
    37  H    0.148035
    38  H    0.163189
    39  H    0.153015
    40  H    0.119762
    41  H    0.121638
    42  H    0.134651
    43  H    0.134284
 Sum of Mulliken charges =  -0.00000

 Dipole moment (field-independent basis, Debye):
    X=              3.8315    Y=             -2.4417    Z=              0.2907  Tot=              4.5526
 Quadrupole moment (field-independent basis, Debye-Ang):
   XX=           -113.5172   YY=           -120.7851   ZZ=           -120.4721
   XY=             13.6189   XZ=              1.5798   YZ=             -0.0787

  Exact polarizability: 268.576  -1.257 178.421   1.416  -0.129 132.062
 Approx polarizability: 341.220 -10.023 301.645  -0.552  -0.518 202.021

                      1                      2                      3
                      A                      A                      A
 Frequencies --     35.1084                47.3223                69.8581
 Red. masses --      3.3820                 3.6396                 8.2853
 Frc consts  --      0.0025                 0.0048                 0.0238
 IR Inten    --      0.0796                 0.9426                 2.2124

                      4                      5                      6
                      A                      A                      A
 Frequencies --     76.7477               116.5195               122.8225
 Red. masses --      2.9407                 2.8298                 4.3668
 Frc consts  --      0.0102                 0.0226                 0.0388
 IR Inten    --      0.1077                 9.6723                 1.5376

                      7                      8                      9
                      A                      A                      A
 Frequencies --    152.7212               192.4436               215.8517
 Red. masses --      1.5481                 1.4652                 4.4212
 Frc consts  --      0.0213                 0.0320                 0.1214
 IR Inten    --      1.4332                 0.1631                 0.6069

                     10                     11                     12
                      A                      A                      A
 Frequencies --    243.5030               254.3016               279.8161
 Red. masses --      2.3177                 1.8817                 2.3524
 Frc consts  --      0.0810                 0.0717                 0.1085
 IR Inten    --      2.0279                 0.1613                 0.6041

                     13                     14                     15
                      A                      A                      A
 Frequencies --    297.1371               335.1473               375.3419
 Red. masses --      2.4716                 2.8487                 3.8877
 Frc consts  --      0.1286                 0.1885                 0.3227
 IR Inten    --      1.4747                 0.0910                 1.5563

                     16                     17                     18
                      A                      A                      A
 Frequencies --    386.3124               414.2685               415.7018
 Red. masses --      4.9431                 2.8107                 3.0875
 Frc consts  --      0.4346                 0.2842                 0.3144
 IR Inten    --      2.1300                 0.6838                 2.7096

                     19                     20                     21
                      A                      A                      A
 Frequencies --    426.5534               440.4547               449.1340
 Red. masses --      3.1892                 2.5732                 2.1120
 Frc consts  --      0.3419                 0.2941                 0.2510
 IR Inten    --      0.5830                 1.2906                 4.1151

                     22                     23                     24
                      A                      A                      A
 Frequencies --    458.9366               475.4618               494.6138
 Red. masses --      2.2246                 3.8846                 3.4837
 Frc consts  --      0.2761                 0.5174                 0.5021
 IR Inten    --      0.3815                 7.4623                 2.1472

                     25                     26                     27
                      A                      A                      A
 Frequencies --    556.9160               575.4578               615.1507
 Red. masses --      2.3260                 3.6820                 5.4842
 Frc consts  --      0.4251                 0.7184                 1.2227
 IR Inten    --      6.6733                 4.2164                 0.0492

                     28                     29                     30
                      A                      A                      A
 Frequencies --    636.4913               659.2251               675.6959
 Red. masses --      3.4525                 7.0970                 4.5959
 Frc consts  --      0.8241                 1.8172                 1.2363
 IR Inten    --      2.3532                 0.1369                 0.1645

                     31                     32                     33
                      A                      A                      A
 Frequencies --    716.1705               741.9525               769.7729
 Red. masses --      3.9507                 4.0989                 4.7228
 Frc consts  --      1.1939                 1.3294                 1.6488
 IR Inten    --      3.0315                 1.0379                 0.9225

                     34                     35                     36
                      A                      A                      A
 Frequencies --    789.1800               806.3094               814.7493
 Red. masses --      3.8167                 2.9443                 1.2590
 Frc consts  --      1.4005                 1.1278                 0.4924
 IR Inten    --      0.6673                 0.6092                 0.4886

                     37                     38                     39
                      A                      A                      A
 Frequencies --    826.1872               862.1088               870.3089
 Red. masses --      1.8628                 2.5342                 3.6199
 Frc consts  --      0.7491                 1.1097                 1.6155
 IR Inten    --     43.7925                 0.2051                 1.1892

                     40                     41                     42
                      A                      A                      A
 Frequencies --    900.9829               901.3851               917.4303
 Red. masses --      1.5813                 1.5987                 2.3782
 Frc consts  --      0.7563                 0.7653                 1.1794
 IR Inten    --      0.0577                 2.9940                 6.7372

                     43                     44                     45
                      A                      A                      A
 Frequencies --    935.6142               946.3024               963.1310
 Red. masses --      1.5047                 1.3642                 1.7491
 Frc consts  --      0.7761                 0.7197                 0.9560
 IR Inten    --      0.1921                 0.0367                 0.5399

                     46                     47                     48
                      A                      A                      A
 Frequencies --    972.0867               978.1155               985.6116
 Red. masses --      3.0954                 2.2736                 2.2170
 Frc consts  --      1.7234                 1.2815                 1.2689
 IR Inten    --     24.6187                 3.7424                 0.7757

                     49                     50                     51
                      A                      A                      A
 Frequencies --   1017.7683              1020.8807              1049.8609
 Red. masses --      2.0656                 3.9469                 2.2180
 Frc consts  --      1.2606                 2.4236                 1.4404
 IR Inten    --      2.0664                 1.6999                 0.2222

                     52                     53                     54
                      A                      A                      A
 Frequencies --   1056.1985              1071.4786              1077.5194
 Red. masses --      3.5727                 2.0303                 1.7814
 Frc consts  --      2.3482                 1.3733                 1.2186
 IR Inten    --      0.6191                 1.6636                29.7923

                     55                     56                     57
                      A                      A                      A
 Frequencies --   1090.3570              1097.5532              1122.0039
 Red. masses --      1.5257                 1.7471                 1.4818
 Frc consts  --      1.0687                 1.2400                 1.0991
 IR Inten    --     23.9946                 0.1325                 0.0450

                     58                     59                     60
                      A                      A                      A
 Frequencies --   1139.5438              1150.3419              1157.2978
 Red. masses --      1.2924                 1.2329                 1.3652
 Frc consts  --      0.9888                 0.9612                 1.0773
 IR Inten    --      0.0259                 0.8113                52.6723

                     61                     62                     63
                      A                      A                      A
 Frequencies --   1162.5940              1171.7255              1205.0331
 Red. masses --      1.1069                 1.4911                 1.5804
 Frc consts  --      0.8815                 1.2062                 1.3521
 IR Inten    --      0.0084                 0.2000                17.9311

                     64                     65                     66
                      A                      A                      A
 Frequencies --   1208.0946              1238.8729              1240.0887
 Red. masses --      1.3092                 1.9207                 1.7629
 Frc consts  --      1.1258                 1.7369                 1.5973
 IR Inten    --     13.8036                 6.7217                14.3202

                     67                     68                     69
                      A                      A                      A
 Frequencies --   1253.3910              1268.9729              1272.7315
 Red. masses --      1.5133                 1.5328                 1.8298
 Frc consts  --      1.4007                 1.4543                 1.7463
 IR Inten    --     16.2117                 6.8278                16.9726

                     70                     71                     72
                      A                      A                      A
 Frequencies --   1284.1210              1296.6403              1302.5894
 Red. masses --      2.6029                 1.3552                 1.6522
 Frc consts  --      2.5288                 1.3425                 1.6517
 IR Inten    --     24.7480                 0.1728                 0.6285

                     73                     74                     75
                      A                      A                      A
 Frequencies --   1329.8622              1338.8566              1351.5023
 Red. masses --      1.5719                 1.7734                 2.4816
 Frc consts  --      1.6379                 1.8729                 2.6706
 IR Inten    --      5.3568                 9.5503                 6.8065

                     76                     77                     78
                      A                      A                      A
 Frequencies --   1354.3273              1358.5215              1377.6486
 Red. masses --      1.5957                 1.4344                 1.8909
 Frc consts  --      1.7245                 1.5598                 2.1145
 IR Inten    --      2.6181                 0.9595                 6.5846

                     79                     80                     81
                      A                      A                      A
 Frequencies --   1381.0276              1387.0669              1389.3013
 Red. masses --      1.6677                 3.3782                 1.5415
 Frc consts  --      1.8740                 3.8294                 1.7530
 IR Inten    --      3.0189               192.3341                 0.5152

                     82                     83                     84
                      A                      A                      A
 Frequencies --   1395.7409              1397.6195              1412.8131
 Red. masses --      1.4994                 1.5333                 1.4689
 Frc consts  --      1.7210                 1.7646                 1.7275
 IR Inten    --      1.5939                 1.1263                 2.7719

                     85                     86                     87
                      A                      A                      A
 Frequencies --   1463.7784              1481.0720              1507.9831
 Red. masses --      1.6329                 1.6479                 1.0839
 Frc consts  --      2.0614                 2.1298                 1.4522
 IR Inten    --      0.2707                 1.7601                 0.0732

                     88                     89                     90
                      A                      A                      A
 Frequencies --   1512.3232              1512.3591              1516.1843
 Red. masses --      1.1245                 1.1072                 1.0981
 Frc consts  --      1.5152                 1.4921                 1.4873
 IR Inten    --     13.5140                13.7607                 2.1280

                     91                     92                     93
                      A                      A                      A
 Frequencies --   1519.8110              1521.7509              1523.7473
 Red. masses --      1.0646                 1.0923                 1.0954
 Frc consts  --      1.4489                 1.4903                 1.4985
 IR Inten    --     12.7694                10.0779                 6.9763

                     94                     95                     96
                      A                      A                      A
 Frequencies --   1542.4664              1542.8860              1558.8469
 Red. masses --      1.0702                 1.0868                 1.0616
 Frc consts  --      1.5001                 1.5242                 1.5199
 IR Inten    --      3.1960                 1.0368                55.3164

                     97                     98                     99
                      A                      A                      A
 Frequencies --   1576.1811              1611.5122              1678.2803
 Red. masses --      2.3031                 5.7643                 5.4670
 Frc consts  --      3.3711                 8.8199                 9.0725
 IR Inten    --    187.6261                 5.8854               109.4724

                    100                    101                    102
                      A                      A                      A
 Frequencies --   1820.0926              2987.6278              2995.9015
 Red. masses --     11.2279                 1.0532                 1.0575
 Frc consts  --     21.9146                 5.5388                 5.5924
 IR Inten    --    239.3251                70.4915               104.5583

                    103                    104                    105
                      A                      A                      A
 Frequencies --   3027.7146              3031.5273              3032.5777
 Red. masses --      1.0616                 1.0645                 1.0595
 Frc consts  --      5.7339                 5.7637                 5.7409
 IR Inten    --     16.5953                13.7481                30.4190

                    106                    107                    108
                      A                      A                      A
 Frequencies --   3040.3663              3043.9281              3052.5856
 Red. masses --      1.0614                 1.0640                 1.0780
 Frc consts  --      5.7809                 5.8085                 5.9182
 IR Inten    --     35.1987                41.1902                79.9331

                    109                    110                    111
                      A                      A                      A
 Frequencies --   3068.1558              3072.1614              3074.1646
 Red. masses --      1.1050                 1.1045                 1.1042
 Frc consts  --      6.1284                 6.1422                 6.1484
 IR Inten    --      2.6692                38.4361                63.9003

                    112                    113                    114
                      A                      A                      A
 Frequencies --   3076.5972              3078.0277              3083.2214
 Red. masses --      1.0839                 1.0855                 1.1004
 Frc consts  --      6.0447                 6.0592                 6.1633
 IR Inten    --     18.9280                53.7968                38.5777

                    115                    116                    117
                      A                      A                      A
 Frequencies --   3086.1387              3086.5606              3088.7972
 Red. masses --      1.0979                 1.0889                 1.0905
 Frc consts  --      6.1612                 6.1120                 6.1300
 IR Inten    --     21.7831                22.1295                39.1292

                    118                    119                    120
                      A                      A                      A
 Frequencies --   3135.8895              3147.1370              3180.9786
 Red. masses --      1.0992                 1.0964                 1.0879
 Frc consts  --      6.3687                 6.3978                 6.4856
 IR Inten    --      3.0591                51.6903                19.8304

                    121                    122                    123
                      A                      A                      A
 Frequencies --   3206.2827              3226.3821              3228.6337
 Red. masses --      1.0865                 1.0905                 1.0916
 Frc consts  --      6.5809                 6.6879                 6.7040
 IR Inten    --     12.9468                21.0854                14.2270

 - Thermochemistry -
 -------------------
 Temperature   298.150 Kelvin.  Pressure   1.00000 Atm.
 Atom     1 has atomic number  8 and mass  15.99491

 Molecular mass:   269.17796 amu.
 Principal axes and moments of inertia in atomic units:
                           1         2         3
     Eigenvalues --  1862.41506********************
           X            0.99995   0.01020   0.00166
           Y           -0.01020   0.99995  -0.00033
           Z           -0.00166   0.00032   1.00000
 This molecule is an asymmetric top.
 Rotational symmetry number  1.
 Warning -- assumption of classical behavior for rotation
           may cause significant error
 Rotational temperatures (Kelvin)      0.04651     0.00783     0.00733
 Rotational constants (GHZ):           0.96903     0.16315     0.15272
 Zero-point vibrational energy     996267.9 (Joules/Mol)
                                  238.11375 (Kcal/Mol)
 Warning -- explicit consideration of  27 degrees of freedom as
           vibrations may cause significant error
 Vibrational temperatures:     50.51    68.09   100.51   110.42   167.65
          (Kelvin)            176.71   219.73   276.88   310.56   350.35
                              365.88   402.59   427.51   482.20   540.03
                              555.82   596.04   598.10   613.72   633.72
                              646.20   660.31   684.08   711.64   801.28
                              827.96   885.06   915.77   948.48   972.18
                             1030.41  1067.50  1107.53  1135.45  1160.10
                             1172.24  1188.70  1240.38  1252.18  1296.31
                             1296.89  1319.98  1346.14  1361.52  1385.73
                             1398.62  1407.29  1418.08  1464.34  1468.82
                             1510.52  1519.63  1541.62  1550.31  1568.78
                             1579.13  1614.31  1639.55  1655.09  1665.09
                             1672.71  1685.85  1733.77  1738.18  1782.46
                             1784.21  1803.35  1825.77  1831.18  1847.56
                             1865.58  1874.14  1913.38  1926.32  1944.51
                             1948.57  1954.61  1982.13  1986.99  1995.68
                             1998.89  2008.16  2010.86  2032.72  2106.05
                             2130.93  2169.65  2175.90  2175.95  2181.45
                             2186.67  2189.46  2192.33  2219.27  2219.87
                             2242.83  2267.77  2318.61  2414.67  2618.71
                             4298.53  4310.43  4356.21  4361.69  4363.20
                             4374.41  4379.53  4391.99  4414.39  4420.16
                             4423.04  4426.54  4428.60  4436.07  4440.27
                             4440.87  4444.09  4511.85  4528.03  4576.72
                             4613.13  4642.04  4645.28

 Zero-point correction=                           0.379458 (Hartree/Particle)
 Thermal correction to Energy=                    0.396427
 Thermal correction to Enthalpy=                  0.397371
 Thermal correction to Gibbs Free Energy=         0.334895
 Sum of electronic and zero-point Energies=           -829.370566
 Sum of electronic and thermal Energies=              -829.353598
 Sum of electronic and thermal Enthalpies=            -829.352653
 Sum of electronic and thermal Free Energies=         -829.415130

                     E (Thermal)             CV                S
                      KCal/Mol        Cal/Mol-Kelvin    Cal/Mol-Kelvin
 Total                  248.762             69.713            131.492
 Electronic               0.000              0.000              0.000
 Translational            0.889              2.981             42.670
 Rotational               0.889              2.981             33.853
 Vibrational            246.984             63.751             54.969
 Vibration     1          0.594              1.982              5.518
 Vibration     2          0.595              1.979              4.926
 Vibration     3          0.598              1.968              4.157
 Vibration     4          0.599              1.965              3.972
 Vibration     5          0.608              1.936              3.157
 Vibration     6          0.610              1.930              3.055
 Vibration     7          0.619              1.900              2.638
 Vibration     8          0.634              1.850              2.204
 Vibration     9          0.645              1.817              1.994
 Vibration    10          0.659              1.774              1.777
 Vibration    11          0.665              1.756              1.701
 Vibration    12          0.680              1.711              1.535
 Vibration    13          0.691              1.679              1.433
 Vibration    14          0.716              1.605              1.235
 Vibration    15          0.746              1.523              1.058
 Vibration    16          0.755              1.499              1.014
 Vibration    17          0.778              1.439              0.912
 Vibration    18          0.779              1.436              0.907
 Vibration    19          0.788              1.412              0.870
 Vibration    20          0.800              1.382              0.825
 Vibration    21          0.808              1.363              0.798
 Vibration    22          0.817              1.341              0.769
 Vibration    23          0.832              1.304              0.722
 Vibration    24          0.850              1.262              0.672
 Vibration    25          0.912              1.125              0.530
 Vibration    26          0.932              1.084              0.494
 Vibration    27          0.975              1.000              0.424

 Normal termination of Gaussian 16 at Fri Feb 23 21:18:35 2024.
