 Gaussian 16, Revision A.03,
 Gaussian 16:  EM64M-G16RevA.03 25-Dec-2016

 ---------------------
 # freq b3lyp/6-31g(d)
 ---------------------

 ---------
 good luck
 ---------
 Symbolic Z-matrix:
 Charge =  0 Multiplicity = 1

                         Standard orientation:
 ---------------------------------------------------------------------
 Center     Atomic      Atomic             Coordinates (Angstroms)
 Number     Number       Type             X           Y           Z
 ---------------------------------------------------------------------
      1          6           0        0.037136   -0.960725    1.534692
      2          6           0        0.165541   -0.628378    0.030696
      3          6           0       -1.139607   -1.083916   -0.676872
      4          6           0        0.356579    0.897565   -0.236620
      5          6           0        1.704279    1.419908    0.291869
      6          6           0        2.886651    0.630340   -0.291838
      7          6           0        2.729229   -0.881261   -0.066987
      8          6           0        1.370299   -1.386761   -0.577977
      9          6           0       -0.837425    1.727531    0.261459
     10          6           0       -2.169453    1.248791   -0.352814
     11          6           0       -2.347763   -0.260946   -0.247109
     12          8           0       -3.380125   -0.769791    0.148046
     13          1           0        0.894829   -0.612720    2.117490
     14          1           0       -0.862743   -0.523192    1.979732
     15          1           0       -0.035495   -2.046354    1.670608
     16          1           0       -1.016412   -0.959470   -1.763914
     17          1           0       -1.352574   -2.140924   -0.484928
     18          1           0        0.386784    1.008025   -1.334677
     19          1           0        1.803440    2.484029    0.038961
     20          1           0        1.724727    1.365162    1.389226
     21          1           0        2.947332    0.827527   -1.372490
     22          1           0        3.830614    0.984130    0.141638
     23          1           0        2.836112   -1.107178    1.002427
     24          1           0        3.536699   -1.423765   -0.574905
     25          1           0        1.265288   -2.462128   -0.379840
     26          1           0        1.340340   -1.268874   -1.671660
     27          1           0       -0.681669    2.784635    0.011357
     28          1           0       -0.898679    1.679165    1.356258
     29          1           0       -2.174832    1.500890   -1.424794
     30          1           0       -3.035553    1.736479    0.104142
 ---------------------------------------------------------------------

 SCF Done:  E(RB3LYP) =  -505.253072843     A.U. after   13 cycles

 The electronic state is 1-A.
 Alpha  occ. eigenvalues --  -19.13031 -10.26640 -10.20345 -10.19152 -10.19032
 Alpha  occ. eigenvalues --  -10.18893 -10.18494 -10.18305 -10.18280 -10.18244
 Alpha  occ. eigenvalues --  -10.18223 -10.17639  -1.02899  -0.85619  -0.79502
 Alpha  occ. eigenvalues --   -0.77652  -0.73471  -0.70949  -0.68660  -0.63437
 Alpha  occ. eigenvalues --   -0.59843  -0.58826  -0.53439  -0.52146  -0.47620
 Alpha  occ. eigenvalues --   -0.46638  -0.46250  -0.44860  -0.43410  -0.43034
 Alpha  occ. eigenvalues --   -0.42414  -0.41126  -0.39482  -0.38562  -0.38006
 Alpha  occ. eigenvalues --   -0.37161  -0.36120  -0.35309  -0.34738  -0.34128
 Alpha  occ. eigenvalues --   -0.33710  -0.32689  -0.31231  -0.29570  -0.29243
 Alpha  occ. eigenvalues --   -0.23205
 Alpha virt. eigenvalues --   -0.01050   0.07724   0.09402   0.10330   0.11224
 Alpha virt. eigenvalues --    0.12019   0.12714   0.13960   0.14967   0.15692
 Alpha virt. eigenvalues --    0.16024   0.17028   0.17245   0.17482   0.18402

 Mulliken charges:
               1
     1  C   -0.472469
     2  C    0.083784
     3  C   -0.348772
     4  C   -0.084559
     5  C   -0.267672
     6  C   -0.261123
     7  C   -0.266410
     8  C   -0.263967
     9  C   -0.281035
    10  C   -0.346599
    11  C    0.450564
    12  O   -0.452042
    13  H    0.149446
    14  H    0.155297
    15  H    0.148264
    16  H    0.145807
    17  H    0.155276
    18  H    0.111377
    19  H    0.130301
    20  H    0.132433
    21  H    0.128367
    22  H    0.132516
    23  H    0.135101
    24  H    0.133806
    25  H    0.130245
    26  H    0.123980
    27  H    0.138177
    28  H    0.145356
    29  H    0.153045
    30  H    0.161506
 Sum of Mulliken charges =  -0.00000

 Dipole moment (field-independent basis, Debye):
    X=              2.8826    Y=              1.2322    Z=             -0.7416  Tot=              3.2215
 Quadrupole moment (field-independent basis, Debye-Ang):
   XX=            -87.4220   YY=            -74.0113   ZZ=            -73.0402
   XY=             -4.9384   XZ=              2.2686   YZ=              0.1234

  Exact polarizability: 127.149   0.793 109.668  -2.461  -0.844  94.435
 Approx polarizability: 166.446   6.636 155.752  -6.598  -3.847 151.862

                      1                      2                      3
                      A                      A                      A
 Frequencies --     76.7105               121.4489               163.9682
 Red. masses --      5.7522                 2.8223                 2.5527
 Frc consts  --      0.0199                 0.0245                 0.0404
 IR Inten    --      3.3079                 0.9286                 0.1948

                      4                      5                      6
                      A                      A                      A
 Frequencies --    186.6165               237.7103               264.6372
 Red. masses --      1.3811                 2.1691                 1.8377
 Frc consts  --      0.0283                 0.0722                 0.0758
 IR Inten    --      0.1769                 0.3813                 0.1380

                      7                      8                      9
                      A                      A                      A
 Frequencies --    305.6330               322.9055               332.4286
 Red. masses --      2.4832                 2.5357                 1.9669
 Frc consts  --      0.1367                 0.1558                 0.1281
 IR Inten    --      0.8935                 0.1834                 0.1368

                     10                     11                     12
                      A                      A                      A
 Frequencies --    370.5825               412.5594               422.0256
 Red. masses --      3.3722                 2.9496                 2.0981
 Frc consts  --      0.2729                 0.2958                 0.2202
 IR Inten    --      0.8809                 1.2261                 0.1309

                     13                     14                     15
                      A                      A                      A
 Frequencies --    472.0575               483.9376               499.9011
 Red. masses --      2.2184                 3.3983                 2.3449
 Frc consts  --      0.2913                 0.4689                 0.3453
 IR Inten    --      1.5433                 5.0975                 0.4251

                     16                     17                     18
                      A                      A                      A
 Frequencies --    524.6367               563.1559               668.0401
 Red. masses --      2.5364                 1.9978                 3.5823
 Frc consts  --      0.4113                 0.3733                 0.9419
 IR Inten    --      4.7799                 2.0847                 0.2043

                     19                     20                     21
                      A                      A                      A
 Frequencies --    707.4317               775.5541               812.3517
 Red. masses --      2.6826                 2.3078                 1.7322
 Frc consts  --      0.7910                 0.8178                 0.6735
 IR Inten    --      0.7647                 3.3597                 0.3049

                     22                     23                     24
                      A                      A                      A
 Frequencies --    837.1462               859.7428               869.4222
 Red. masses --      2.1000                 2.2361                 1.8696
 Frc consts  --      0.8671                 0.9738                 0.8327
 IR Inten    --      0.9074                 1.1180                 1.3105

                     25                     26                     27
                      A                      A                      A
 Frequencies --    910.8408               924.8685               959.4855
 Red. masses --      1.7241                 2.0075                 1.9406
 Frc consts  --      0.8428                 1.0117                 1.0526
 IR Inten    --      2.3520                 1.3465                 0.5968

                     28                     29                     30
                      A                      A                      A
 Frequencies --    964.0448               990.2639               995.1783
 Red. masses --      1.6892                 1.8850                 1.8810
 Frc consts  --      0.9249                 1.0891                 1.0976
 IR Inten    --      1.1010                 2.1042                 4.0803

                     31                     32                     33
                      A                      A                      A
 Frequencies --   1005.3367              1028.2143              1068.0902
 Red. masses --      1.7259                 1.5665                 1.7242
 Frc consts  --      1.0277                 0.9758                 1.1589
 IR Inten    --      3.9459                 1.3010                 0.8807

                     34                     35                     36
                      A                      A                      A
 Frequencies --   1081.7591              1098.8418              1142.8561
 Red. masses --      1.7927                 2.1621                 2.0078
 Frc consts  --      1.2360                 1.5381                 1.5451
 IR Inten    --      3.2443                 0.1818                 6.7804

                     37                     38                     39
                      A                      A                      A
 Frequencies --   1154.7680              1179.5244              1185.6716
 Red. masses --      1.6251                 1.9122                 1.4131
 Frc consts  --      1.2768                 1.5675                 1.1705
 IR Inten    --      0.2870                 3.1761                 6.8629

                     40                     41                     42
                      A                      A                      A
 Frequencies --   1198.2910              1217.2415              1245.5459
 Red. masses --      1.8454                 1.8591                 1.4504
 Frc consts  --      1.5613                 1.6229                 1.3257
 IR Inten    --     11.3821                12.7989                10.5980

                     43                     44                     45
                      A                      A                      A
 Frequencies --   1259.7200              1282.0521              1304.6416
 Red. masses --      1.7800                 1.4008                 1.2811
 Frc consts  --      1.6643                 1.3565                 1.2848
 IR Inten    --     19.6136                 1.4264                 0.4261

                     46                     47                     48
                      A                      A                      A
 Frequencies --   1329.3823              1331.4842              1345.1267
 Red. masses --      1.6016                 1.4752                 1.4472
 Frc consts  --      1.6676                 1.5409                 1.5428
 IR Inten    --      9.9983                 4.1720                 1.1141

                     49                     50                     51
                      A                      A                      A
 Frequencies --   1357.2516              1379.4661              1387.0132
 Red. masses --      1.4152                 1.4242                 1.4035
 Frc consts  --      1.5360                 1.5968                 1.5908
 IR Inten    --      5.1027                 1.6916                 1.6436

                     52                     53                     54
                      A                      A                      A
 Frequencies --   1393.5779              1404.2032              1404.9889
 Red. masses --      1.4041                 1.4648                 1.3820
 Frc consts  --      1.6066                 1.7017                 1.6073
 IR Inten    --      1.3060                 0.1005                 2.7659

                     55                     56                     57
                      A                      A                      A
 Frequencies --   1413.9428              1446.3523              1489.9863
 Red. masses --      1.5713                 1.2377                 1.0961
 Frc consts  --      1.8508                 1.5255                 1.4337
 IR Inten    --      3.1620                 8.8973                 4.7602

                     58                     59                     60
                      A                      A                      A
 Frequencies --   1498.6943              1511.9192              1513.5789
 Red. masses --      1.0842                 1.0797                 1.0819
 Frc consts  --      1.4348                 1.4542                 1.4603
 IR Inten    --      6.3891                 2.9849                 1.4232

                     61                     62                     63
                      A                      A                      A
 Frequencies --   1517.1557              1526.9512              1537.9151
 Red. masses --      1.0860                 1.0823                 1.0907
 Frc consts  --      1.4728                 1.4868                 1.5200
 IR Inten    --      4.3033                 9.5630                 1.9405

                     64                     65                     66
                      A                      A                      A
 Frequencies --   1539.3939              1542.8220              1814.8433
 Red. masses --      1.0656                 1.0664                10.9844
 Frc consts  --      1.4878                 1.4955                21.3159
 IR Inten    --      2.5476                 1.5624               195.9096

                     67                     68                     69
                      A                      A                      A
 Frequencies --   2970.5004              3014.2817              3017.6254
 Red. masses --      1.0817                 1.0660                 1.0665
 Frc consts  --      5.6238                 5.7068                 5.7219
 IR Inten    --     17.0711                 7.0846                 9.6496

                     70                     71                     72
                      A                      A                      A
 Frequencies --   3021.3865              3023.8649              3031.5552
 Red. masses --      1.0681                 1.0677                 1.0604
 Frc consts  --      5.7450                 5.7521                 5.7419
 IR Inten    --     18.7575                43.7423                18.3367

                     73                     74                     75
                      A                      A                      A
 Frequencies --   3037.9043              3044.7857              3055.9940
 Red. masses --      1.0642                 1.0589                 1.0475
 Frc consts  --      5.7865                 5.7839                 5.7636
 IR Inten    --     13.9461                42.5509                 9.0597

                     76                     77                     78
                      A                      A                      A
 Frequencies --   3061.5759              3065.0984              3071.7604
 Red. masses --      1.0894                 1.0991                 1.0971
 Frc consts  --      6.0160                 6.0837                 6.0989
 IR Inten    --     48.4781                26.8028                48.9597

                     79                     80                     81
                      A                      A                      A
 Frequencies --   3078.7388              3081.9292              3103.2541
 Red. masses --      1.1039                 1.1029                 1.0953
 Frc consts  --      6.1651                 6.1720                 6.2146
 IR Inten    --     21.1854               116.8194                20.9756

                     82                     83                     84
                      A                      A                      A
 Frequencies --   3114.8016              3116.9441              3134.0985
 Red. masses --      1.0995                 1.0944                 1.1002
 Frc consts  --      6.2848                 6.2646                 6.3674
 IR Inten    --     19.4362                30.0683                30.3689

 - Thermochemistry -
 -------------------
 Temperature   298.150 Kelvin.  Pressure   1.00000 Atm.
 Atom     1 has atomic number  6 and mass  12.00000

 Molecular mass:   166.13577 amu.
 Principal axes and moments of inertia in atomic units:
                           1         2         3
     Eigenvalues --  1022.307792584.888083089.55754
           X            0.99985  -0.01707   0.00125
           Y            0.01707   0.99985  -0.00179
           Z           -0.00122   0.00181   1.00000
 This molecule is an asymmetric top.
 Rotational symmetry number  1.
 Warning -- assumption of classical behavior for rotation
           may cause significant error
 Rotational temperatures (Kelvin)      0.08472     0.03351     0.02803
 Rotational constants (GHZ):           1.76536     0.69819     0.58414
 Zero-point vibrational energy     719075.2 (Joules/Mol)
                                  171.86310 (Kcal/Mol)
 Warning -- explicit consideration of  17 degrees of freedom as
           vibrations may cause significant error
 Vibrational temperatures:    110.37   174.74   235.91   268.50   342.01
          (Kelvin)            380.75   439.74   464.59   478.29   533.19
                              593.58   607.20   679.19   696.28   719.25
                              754.84   810.26   961.16  1017.84  1115.85
                             1168.79  1204.47  1236.98  1250.90  1310.50
                             1330.68  1380.49  1387.05  1424.77  1431.84
                             1446.46  1479.37  1536.74  1556.41  1580.99
                             1644.32  1661.45  1697.07  1705.92  1724.07
                             1751.34  1792.06  1812.46  1844.59  1877.09
                             1912.68  1915.71  1935.34  1952.78  1984.74
                             1995.60  2005.05  2020.34  2021.47  2034.35
                             2080.98  2143.76  2156.29  2175.31  2177.70
                             2182.85  2196.94  2212.72  2214.84  2219.78
                             2611.15  4273.89  4336.88  4341.69  4347.10
                             4350.67  4361.73  4370.87  4380.77  4396.89
                             4404.92  4409.99  4419.58  4429.62  4434.21
                             4464.89  4481.50  4484.59  4509.27

 Zero-point correction=                           0.273881 (Hartree/Particle)
 Thermal correction to Energy=                    0.284856
 Thermal correction to Enthalpy=                  0.285801
 Thermal correction to Gibbs Free Energy=         0.238135
 Sum of electronic and zero-point Energies=           -504.979192
 Sum of electronic and thermal Energies=              -504.968216
 Sum of electronic and thermal Enthalpies=            -504.967272
 Sum of electronic and thermal Free Energies=         -505.014938

                     E (Thermal)             CV                S
                      KCal/Mol        Cal/Mol-Kelvin    Cal/Mol-Kelvin
 Total                  178.750             45.338            100.321
 Electronic               0.000              0.000              0.000
 Translational            0.889              2.981             41.231
 Rotational               0.889              2.981             30.480
 Vibrational            176.973             39.377             28.610
 Vibration     1          0.599              1.965              3.973
 Vibration     2          0.609              1.931              3.077
 Vibration     3          0.623              1.887              2.504
 Vibration     4          0.632              1.858              2.261
 Vibration     5          0.656              1.783              1.820
 Vibration     6          0.671              1.738              1.631
 Vibration     7          0.696              1.663              1.386
 Vibration     8          0.708              1.630              1.295
 Vibration     9          0.714              1.611              1.248
 Vibration    10          0.743              1.533              1.077
 Vibration    11          0.776              1.443              0.918
 Vibration    12          0.784              1.422              0.885
 Vibration    13          0.829              1.312              0.732
 Vibration    14          0.840              1.286              0.700
 Vibration    15          0.855              1.250              0.658
 Vibration    16          0.880              1.195              0.599
 Vibration    17          0.919              1.111              0.518

 Normal termination of Gaussian 16 at Sat Feb 24 05:07:23 2024.
