 Gaussian 16, Revision A.03,
 Gaussian 16:  EM64M-G16RevA.03 25-Dec-2016

 ---------------------
 # freq b3lyp/6-31g(d)
 ---------------------

 ---------
 good luck
 ---------
 Symbolic Z-matrix:
 Charge =  0 Multiplicity = 1

                         Standard orientation:
 ---------------------------------------------------------------------
 Center     Atomic      Atomic             Coordinates (Angstroms)
 Number     Number       Type             X           Y           Z
 ---------------------------------------------------------------------
      1          8           0        4.219291    0.697541   -0.000040
      2          6           0        3.173319    0.076883   -0.000003
      3          6           0        2.468463   -0.342153   -1.284093
      4          6           0        0.969959    0.021920   -1.265529
      5          6           0        0.260023   -0.508849    0.000029
      6          6           0       -1.228762   -0.199256    0.000009
      7          6           0       -2.169704   -1.237021    0.000071
      8          6           0       -3.540115   -0.970108    0.000058
      9          6           0       -3.995682    0.348260   -0.000020
     10          6           0       -3.070271    1.394095   -0.000081
     11          6           0       -1.702384    1.121804   -0.000067
     12          6           0        0.969955    0.022078    1.265523
     13          6           0        2.468460   -0.341993    1.284137
     14          1           0        2.988101    0.112703   -2.132574
     15          1           0        2.570852   -1.434484   -1.378529
     16          1           0        0.480671   -0.374417   -2.162839
     17          1           0        0.863322    1.114008   -1.310606
     18          1           0        0.367004   -1.604311    0.000098
     19          1           0       -1.823855   -2.268670    0.000123
     20          1           0       -4.249928   -1.793319    0.000100
     21          1           0       -5.061463    0.560306   -0.000031
     22          1           0       -3.413880    2.425347   -0.000131
     23          1           0       -0.997644    1.949868   -0.000106
     24          1           0        0.480663   -0.374146    2.162881
     25          1           0        0.863317    1.114172    1.310463
     26          1           0        2.570848   -1.434312    1.378709
     27          1           0        2.988094    0.112969    2.132563
 ---------------------------------------------------------------------

 SCF Done:  E(RB3LYP) =  -540.940547356     A.U. after   14 cycles

 The electronic state is 1-A.
 Alpha  occ. eigenvalues --  -19.13401 -10.27005 -10.20275 -10.19789 -10.19587
 Alpha  occ. eigenvalues --  -10.19586 -10.19241 -10.19239 -10.19201 -10.19172
 Alpha  occ. eigenvalues --  -10.19045 -10.19036 -10.19024  -1.03275  -0.86179
 Alpha  occ. eigenvalues --   -0.83173  -0.76467  -0.75694  -0.74495  -0.70722
 Alpha  occ. eigenvalues --   -0.63037  -0.61848  -0.60349  -0.57245  -0.53194
 Alpha  occ. eigenvalues --   -0.51664  -0.47104  -0.46085  -0.46022  -0.44817
 Alpha  occ. eigenvalues --   -0.44335  -0.42650  -0.42515  -0.41834  -0.40132
 Alpha  occ. eigenvalues --   -0.39252  -0.37306  -0.36697  -0.35871  -0.35605
 Alpha  occ. eigenvalues --   -0.34345  -0.33111  -0.32816  -0.31882  -0.25124
 Alpha  occ. eigenvalues --   -0.24374  -0.23604
 Alpha virt. eigenvalues --   -0.01413  -0.00364  -0.00114   0.08743   0.09259
 Alpha virt. eigenvalues --    0.09915   0.12495   0.13134   0.14206   0.14719
 Alpha virt. eigenvalues --    0.14944   0.16123   0.16961   0.17021   0.17746

 Mulliken charges:
               1
     1  O   -0.444764
     2  C    0.451914
     3  C   -0.346237
     4  C   -0.271567
     5  C   -0.183135
     6  C    0.185843
     7  C   -0.195850
     8  C   -0.126464
     9  C   -0.130104
    10  C   -0.130582
    11  C   -0.185429
    12  C   -0.271567
    13  C   -0.346237
    14  H    0.164772
    15  H    0.153882
    16  H    0.149822
    17  H    0.146328
    18  H    0.123523
    19  H    0.123442
    20  H    0.129841
    21  H    0.129837
    22  H    0.130632
    23  H    0.127295
    24  H    0.149823
    25  H    0.146328
    26  H    0.153882
    27  H    0.164772
 Sum of Mulliken charges =  -0.00000

 Dipole moment (field-independent basis, Debye):
    X=             -2.6251    Y=             -1.3923    Z=              0.0001  Tot=              2.9714
 Quadrupole moment (field-independent basis, Debye-Ang):
   XX=            -90.6146   YY=            -72.6324   ZZ=            -77.6527
   XY=             -6.1492   XZ=              0.0004   YZ=             -0.0002

  Exact polarizability: 164.311   2.439 114.439  -0.000  -0.002  80.592
 Approx polarizability: 223.458   9.423 201.520  -0.001  -0.005 114.007

                      1                      2                      3
                      A                      A                      A
 Frequencies --     38.8261                54.3002                95.4439
 Red. masses --      3.6356                 6.9217                 3.8198
 Frc consts  --      0.0032                 0.0120                 0.0205
 IR Inten    --      0.3161                 3.0441                 0.0027

                      4                      5                      6
                      A                      A                      A
 Frequencies --    141.9407               179.8360               245.8276
 Red. masses --      3.5683                 2.0282                 4.8405
 Frc consts  --      0.0424                 0.0386                 0.1723
 IR Inten    --      0.9578                 1.2367                 0.3062

                      7                      8                      9
                      A                      A                      A
 Frequencies --    289.0116               297.1050               417.6777
 Red. masses --      3.6857                 2.8673                 2.9930
 Frc consts  --      0.1814                 0.1491                 0.3076
 IR Inten    --      1.2329                 0.0238                 0.0000

                     10                     11                     12
                      A                      A                      A
 Frequencies --    423.5643               426.6739               475.6856
 Red. masses --      3.5528                 1.9668                 2.3908
 Frc consts  --      0.3755                 0.2110                 0.3187
 IR Inten    --      2.7574                 2.5469                 0.4991

                     13                     14                     15
                      A                      A                      A
 Frequencies --    490.5215               547.9544               610.0820
 Red. masses --      3.5855                 3.1266                 4.9034
 Frc consts  --      0.5083                 0.5531                 1.0753
 IR Inten    --     12.2864                 2.5336                 2.3525

                     16                     17                     18
                      A                      A                      A
 Frequencies --    635.5757               691.3195               716.2690
 Red. masses --      6.3767                 3.9234                 1.8011
 Frc consts  --      1.5177                 1.1048                 0.5444
 IR Inten    --      0.0086                 0.5214                23.6134

                     19                     20                     21
                      A                      A                      A
 Frequencies --    750.6358               768.4719               775.4860
 Red. masses --      3.3027                 1.5377                 1.9337
 Frc consts  --      1.0964                 0.5350                 0.6852
 IR Inten    --      2.6410                 7.1661                24.5777

                     22                     23                     24
                      A                      A                      A
 Frequencies --    831.1296               859.5127               886.8282
 Red. masses --      2.3165                 1.2477                 3.0485
 Frc consts  --      0.9428                 0.5431                 1.4126
 IR Inten    --      3.2332                 0.0033                 0.6876

                     25                     26                     27
                      A                      A                      A
 Frequencies --    917.4343               924.1182               960.9076
 Red. masses --      1.4833                 1.3522                 2.0077
 Frc consts  --      0.7356                 0.6804                 1.0922
 IR Inten    --      3.5019                 1.0488                 5.3975

                     28                     29                     30
                      A                      A                      A
 Frequencies --    965.9898               993.4062               994.8274
 Red. masses --      1.3776                 2.4634                 1.2507
 Frc consts  --      0.7574                 1.4323                 0.7293
 IR Inten    --      0.3664                 5.0598                 0.0008

                     31                     32                     33
                      A                      A                      A
 Frequencies --   1017.6721              1023.3789              1061.2109
 Red. masses --      5.7516                 2.1268                 2.1757
 Frc consts  --      3.5096                 1.3124                 1.4436
 IR Inten    --      1.4810                 1.7873                 1.9495

                     34                     35                     36
                      A                      A                      A
 Frequencies --   1073.2365              1103.3927              1119.1623
 Red. masses --      1.6268                 1.8245                 1.6365
 Frc consts  --      1.1040                 1.3087                 1.2077
 IR Inten    --      2.0729                 2.6628                 0.8461

                     37                     38                     39
                      A                      A                      A
 Frequencies --   1133.6209              1185.3288              1193.2313
 Red. masses --      2.0145                 2.2350                 1.0999
 Frc consts  --      1.5253                 1.8502                 0.9226
 IR Inten    --      1.3377                43.0099                 0.0703

                     40                     41                     42
                      A                      A                      A
 Frequencies --   1217.4143              1223.6623              1231.5225
 Red. masses --      1.1398                 1.6020                 1.7602
 Frc consts  --      0.9953                 1.4133                 1.5729
 IR Inten    --      0.0761                 1.0791                 2.8410

                     43                     44                     45
                      A                      A                      A
 Frequencies --   1275.0065              1289.3969              1312.8950
 Red. masses --      1.5252                 1.4085                 1.8991
 Frc consts  --      1.4609                 1.3797                 1.9286
 IR Inten    --      9.8148                 1.0512                 3.6663

                     46                     47                     48
                      A                      A                      A
 Frequencies --   1327.2819              1362.5422              1365.5127
 Red. masses --      1.3407                 1.3701                 1.4940
 Frc consts  --      1.3916                 1.4987                 1.6413
 IR Inten    --      0.2565                 0.0496                15.4607

                     49                     50                     51
                      A                      A                      A
 Frequencies --   1367.1379              1376.3646              1388.3261
 Red. masses --      2.6517                 1.3411                 1.4054
 Frc consts  --      2.9201                 1.4968                 1.5960
 IR Inten    --      1.4423                 3.6118                 0.8684

                     52                     53                     54
                      A                      A                      A
 Frequencies --   1418.0217              1490.8402              1499.6159
 Red. masses --      1.4872                 1.0937                 1.2678
 Frc consts  --      1.7620                 1.4322                 1.6798
 IR Inten    --      1.5836                 5.8664                13.3010

                     55                     56                     57
                      A                      A                      A
 Frequencies --   1504.1543              1517.4053              1530.5131
 Red. masses --      1.6680                 1.0893                 1.1034
 Frc consts  --      2.2235                 1.4777                 1.5229
 IR Inten    --      0.9810                 3.0864                 2.6404

                     58                     59                     60
                      A                      A                      A
 Frequencies --   1546.9367              1643.2298              1664.6974
 Red. masses --      2.1522                 5.3515                 5.5619
 Frc consts  --      3.0344                 8.5138                 9.0812
 IR Inten    --     12.2707                 1.5329                 6.3288

                     61                     62                     63
                      A                      A                      A
 Frequencies --   1819.7257              3008.4046              3017.4718
 Red. masses --     10.9981                 1.0826                 1.0692
 Frc consts  --     21.4576                 5.7728                 5.7358
 IR Inten    --    210.1838                11.4572                 1.6534

                     64                     65                     66
                      A                      A                      A
 Frequencies --   3024.3042              3043.5010              3048.7483
 Red. masses --      1.0698                 1.0618                 1.0619
 Frc consts  --      5.7652                 5.7951                 5.8153
 IR Inten    --     20.4248                15.4962                45.8732

                     67                     68                     69
                      A                      A                      A
 Frequencies --   3088.2531              3091.4753              3116.5506
 Red. masses --      1.1017                 1.1024                 1.0939
 Frc consts  --      6.1909                 6.2073                 6.2601
 IR Inten    --     29.7975                27.2927                19.9984

                     70                     71                     72
                      A                      A                      A
 Frequencies --   3117.8726              3172.3332              3177.7040
 Red. masses --      1.0947                 1.0864                 1.0862
 Frc consts  --      6.2697                 6.4416                 6.4625
 IR Inten    --     18.1367                 9.9615                 4.5963

                     73                     74                     75
                      A                      A                      A
 Frequencies --   3188.0400              3196.4437              3208.3989
 Red. masses --      1.0897                 1.0939                 1.0979
 Frc consts  --      6.5255                 6.5850                 6.6585
 IR Inten    --      9.3596                41.9578                22.2811

 - Thermochemistry -
 -------------------
 Temperature   298.150 Kelvin.  Pressure   1.00000 Atm.
 Atom     1 has atomic number  8 and mass  15.99491

 Molecular mass:   174.10447 amu.
 Principal axes and moments of inertia in atomic units:
                           1         2         3
     Eigenvalues --   770.226034775.150334803.30202
           X            0.99998  -0.00619   0.00000
           Y            0.00619   0.99998   0.00000
           Z           -0.00000  -0.00000   1.00000
 This molecule is an asymmetric top.
 Rotational symmetry number  1.
 Warning -- assumption of classical behavior for rotation
           may cause significant error
 Rotational temperatures (Kelvin)      0.11245     0.01814     0.01803
 Rotational constants (GHZ):           2.34313     0.37794     0.37573
 Zero-point vibrational energy     611221.8 (Joules/Mol)
                                  146.08551 (Kcal/Mol)
 Warning -- explicit consideration of  15 degrees of freedom as
           vibrations may cause significant error
 Vibrational temperatures:     55.86    78.13   137.32   204.22   258.74
          (Kelvin)            353.69   415.82   427.47   600.95   609.41
                              613.89   684.41   705.75   788.38   877.77
                              914.45   994.65  1030.55  1080.00  1105.66
                             1115.75  1195.81  1236.65  1275.95  1319.98
                             1329.60  1382.53  1389.84  1429.29  1431.33
                             1464.20  1472.41  1526.85  1544.15  1587.54
                             1610.22  1631.03  1705.42  1716.79  1751.59
                             1760.58  1771.89  1834.45  1855.15  1888.96
                             1909.66  1960.39  1964.67  1967.01  1980.28
                             1997.49  2040.22  2144.99  2157.61  2164.14
                             2183.21  2202.07  2225.70  2364.24  2395.13
                             2618.18  4328.42  4341.47  4351.30  4378.92
                             4386.47  4443.31  4447.94  4484.02  4485.92
                             4564.28  4572.01  4586.88  4598.97  4616.17

 Zero-point correction=                           0.232802 (Hartree/Particle)
 Thermal correction to Energy=                    0.243830
 Thermal correction to Enthalpy=                  0.244774
 Thermal correction to Gibbs Free Energy=         0.194972
 Sum of electronic and zero-point Energies=           -540.707745
 Sum of electronic and thermal Energies=              -540.696717
 Sum of electronic and thermal Enthalpies=            -540.695773
 Sum of electronic and thermal Free Energies=         -540.745575

                     E (Thermal)             CV                S
                      KCal/Mol        Cal/Mol-Kelvin    Cal/Mol-Kelvin
 Total                  153.006             43.673            104.817
 Electronic               0.000              0.000              0.000
 Translational            0.889              2.981             41.371
 Rotational               0.889              2.981             31.247
 Vibrational            151.228             37.712             32.199
 Vibration     1          0.594              1.981              5.318
 Vibration     2          0.596              1.976              4.654
 Vibration     3          0.603              1.952              3.545
 Vibration     4          0.615              1.911              2.778
 Vibration     5          0.629              1.867              2.330
 Vibration     6          0.660              1.770              1.760
 Vibration     7          0.686              1.694              1.480
 Vibration     8          0.691              1.679              1.433
 Vibration     9          0.781              1.432              0.900
 Vibration    10          0.786              1.419              0.880
 Vibration    11          0.788              1.412              0.870
 Vibration    12          0.832              1.304              0.722
 Vibration    13          0.846              1.271              0.682
 Vibration    14          0.903              1.144              0.548
 Vibration    15          0.969              1.010              0.433

 Normal termination of Gaussian 16 at Sat Feb 24 03:58:17 2024.
