 Gaussian 16, Revision A.03,
 Gaussian 16:  EM64M-G16RevA.03 25-Dec-2016

 ---------------------
 # freq b3lyp/6-31g(d)
 ---------------------

 ---------
 good luck
 ---------
 Symbolic Z-matrix:
 Charge =  0 Multiplicity = 1

                         Standard orientation:
 ---------------------------------------------------------------------
 Center     Atomic      Atomic             Coordinates (Angstroms)
 Number     Number       Type             X           Y           Z
 ---------------------------------------------------------------------
      1          8           0       -4.621205   -1.477543   -1.566347
      2          6           0       -3.876021   -0.827671   -0.858769
      3          6           0       -3.353953   -1.306410    0.491634
      4          6           0       -1.806640   -1.337040    0.441303
      5          6           0       -3.820106   -0.306330    1.577545
      6          6           0       -3.269858    1.094609    1.250826
      7          6           0       -3.812140    1.551746   -0.117848
      8          6           0       -3.355554    0.559635   -1.216634
      9          6           0       -1.808494    0.508092   -1.257083
     10          6           0       -1.226602    0.063213    0.117184
     11          6           0        0.305725    0.072182    0.062552
     12          6           0        1.081458   -1.074590    0.289653
     13          6           0        2.474383   -1.035123    0.233492
     14          6           0        3.135604    0.163025   -0.053644
     15          6           0        4.618233    0.270287   -0.128789
     16          8           0        5.223614    1.295142   -0.377164
     17          8           0        5.235967   -0.910585    0.111801
     18          6           0        6.669440   -0.872823    0.053713
     19          6           0        2.376207    1.318265   -0.282449
     20          6           0        0.989439    1.268836   -0.224182
     21          6           0       -1.729272    1.051133    1.210603
     22          1           0       -3.750034   -2.309029    0.681507
     23          1           0       -1.481161   -2.065168   -0.312632
     24          1           0       -1.430403   -1.687867    1.411397
     25          1           0       -4.916527   -0.286879    1.627079
     26          1           0       -3.459966   -0.641051    2.559792
     27          1           0       -3.589569    1.803452    2.025542
     28          1           0       -4.908056    1.609575   -0.094609
     29          1           0       -3.443287    2.557674   -0.360444
     30          1           0       -3.757184    0.841209   -2.195309
     31          1           0       -1.427521    1.499623   -1.530093
     32          1           0       -1.472085   -0.184762   -2.039006
     33          1           0        0.604815   -2.021826    0.514414
     34          1           0        3.049918   -1.936535    0.412583
     35          1           0        7.066455   -0.176615    0.797384
     36          1           0        6.997156   -1.890734    0.267373
     37          1           0        7.006321   -0.560289   -0.938319
     38          1           0        2.893069    2.246088   -0.505062
     39          1           0        0.429613    2.181707   -0.406017
     40          1           0       -1.337210    2.056944    1.016598
     41          1           0       -1.332452    0.742161    2.186869
 ---------------------------------------------------------------------

 SCF Done:  E(RB3LYP) =  -923.663426177     A.U. after   15 cycles

 The electronic state is 1-A.
 Alpha  occ. eigenvalues --  -19.19228 -19.13493 -19.13267 -10.31395 -10.26587
 Alpha  occ. eigenvalues --  -10.24072 -10.21516 -10.20985 -10.20456 -10.20087
 Alpha  occ. eigenvalues --  -10.19953 -10.19867 -10.19759 -10.19715 -10.19711
 Alpha  occ. eigenvalues --  -10.19700 -10.19698 -10.19693 -10.19512 -10.19485
 Alpha  occ. eigenvalues --  -10.19198  -1.10015  -1.03327  -1.01049  -0.88623
 Alpha  occ. eigenvalues --   -0.86244  -0.80263  -0.78506  -0.77162  -0.75525
 Alpha  occ. eigenvalues --   -0.75293  -0.71716  -0.68334  -0.65524  -0.63538
 Alpha  occ. eigenvalues --   -0.61948  -0.59975  -0.58716  -0.57660  -0.56336
 Alpha  occ. eigenvalues --   -0.53658  -0.51204  -0.48374  -0.48034  -0.47700
 Alpha  occ. eigenvalues --   -0.46666  -0.46174  -0.45407  -0.44889  -0.44491
 Alpha  occ. eigenvalues --   -0.44203  -0.43701  -0.42863  -0.42376  -0.41299
 Alpha  occ. eigenvalues --   -0.41089  -0.40407  -0.40354  -0.40093  -0.37144
 Alpha  occ. eigenvalues --   -0.36941  -0.36545  -0.36377  -0.35999  -0.35233
 Alpha  occ. eigenvalues --   -0.34201  -0.34139  -0.33603  -0.30805  -0.30522
 Alpha  occ. eigenvalues --   -0.30131  -0.29988  -0.27292  -0.25897  -0.25197
 Alpha  occ. eigenvalues --   -0.23241
 Alpha virt. eigenvalues --   -0.04545  -0.01379  -0.00711   0.05545   0.06343
 Alpha virt. eigenvalues --    0.09340   0.10657   0.11311   0.11615   0.12363
 Alpha virt. eigenvalues --    0.12628   0.12815   0.13464   0.13941   0.14620

 Mulliken charges:
               1
     1  O   -0.457934
     2  C    0.454902
     3  C   -0.167634
     4  C   -0.309132
     5  C   -0.280661
     6  C   -0.096298
     7  C   -0.281833
     8  C   -0.167217
     9  C   -0.289756
    10  C   -0.003455
    11  C    0.176821
    12  C   -0.198236
    13  C   -0.168324
    14  C    0.058285
    15  C    0.589866
    16  O   -0.492183
    17  O   -0.467746
    18  C   -0.215951
    19  C   -0.161096
    20  C   -0.192759
    21  C   -0.274910
    22  H    0.144165
    23  H    0.151178
    24  H    0.143682
    25  H    0.146281
    26  H    0.139189
    27  H    0.129227
    28  H    0.146510
    29  H    0.137883
    30  H    0.145436
    31  H    0.142541
    32  H    0.152377
    33  H    0.135488
    34  H    0.155634
    35  H    0.171167
    36  H    0.163374
    37  H    0.171590
    38  H    0.162102
    39  H    0.132493
    40  H    0.136097
    41  H    0.138840
 Sum of Mulliken charges =  -0.00000

 Dipole moment (field-independent basis, Debye):
    X=              0.6658    Y=              0.0945    Z=              2.2725  Tot=              2.3699
 Quadrupole moment (field-independent basis, Debye-Ang):
   XX=           -130.6924   YY=           -122.3018   ZZ=           -125.1084
   XY=            -20.4781   XZ=             -7.8376   YZ=             -4.2305

  Exact polarizability: 266.799  -0.292 170.932   0.042  -7.926 129.798
 Approx polarizability: 333.930  10.400 298.070   3.218 -17.522 203.029

                      1                      2                      3
                      A                      A                      A
 Frequencies --     31.3630                45.2861                69.2132
 Red. masses --      4.6297                 5.9630                 4.2431
 Frc consts  --      0.0027                 0.0072                 0.0120
 IR Inten    --      0.9256                 1.5172                 1.2137

                      4                      5                      6
                      A                      A                      A
 Frequencies --     78.0953                95.3980               120.5715
 Red. masses --      5.3318                 5.3229                 2.0930
 Frc consts  --      0.0192                 0.0285                 0.0179
 IR Inten    --      1.5833                 1.2986                 0.8574

                      7                      8                      9
                      A                      A                      A
 Frequencies --    138.7107               160.6612               193.7574
 Red. masses --      1.5218                 3.9872                 4.4501
 Frc consts  --      0.0173                 0.0606                 0.0984
 IR Inten    --      0.1284                 1.1958                 2.2286

                     10                     11                     12
                      A                      A                      A
 Frequencies --    213.7728               269.5240               282.8220
 Red. masses --      5.8729                 2.7385                 2.4009
 Frc consts  --      0.1581                 0.1172                 0.1131
 IR Inten    --      1.1334                 2.1492                 0.5306

                     13                     14                     15
                      A                      A                      A
 Frequencies --    314.4744               331.8788               358.1787
 Red. masses --      3.5927                 3.8677                 4.3204
 Frc consts  --      0.2093                 0.2510                 0.3266
 IR Inten    --      5.8145                 8.8158                 6.0006

                     16                     17                     18
                      A                      A                      A
 Frequencies --    374.3989               394.8294               413.1476
 Red. masses --      4.7287                 3.1550                 3.2599
 Frc consts  --      0.3905                 0.2898                 0.3278
 IR Inten    --      0.9109                 0.3182                 1.5982

                     19                     20                     21
                      A                      A                      A
 Frequencies --    418.4579               421.4625               444.2898
 Red. masses --      3.0935                 3.2937                 2.0869
 Frc consts  --      0.3192                 0.3447                 0.2427
 IR Inten    --      0.0660                 0.0652                 2.7977

                     22                     23                     24
                      A                      A                      A
 Frequencies --    454.0941               478.7578               503.4905
 Red. masses --      2.3408                 3.8593                 5.4066
 Frc consts  --      0.2844                 0.5212                 0.8075
 IR Inten    --      1.6922                 7.8107                 5.3716

                     25                     26                     27
                      A                      A                      A
 Frequencies --    546.2918               616.5959               635.6382
 Red. masses --      3.1062                 5.3535                 3.7747
 Frc consts  --      0.5462                 1.1992                 0.8986
 IR Inten    --      3.5021                 0.1761                 1.7560

                     28                     29                     30
                      A                      A                      A
 Frequencies --    654.5691               655.3056               715.1530
 Red. masses --      6.3571                 5.8559                 3.9111
 Frc consts  --      1.6048                 1.4816                 1.1785
 IR Inten    --      0.4489                 0.3417                21.2461

                     31                     32                     33
                      A                      A                      A
 Frequencies --    719.2568               723.7275               774.3090
 Red. masses --      4.0708                 4.8364                 4.3600
 Frc consts  --      1.2408                 1.4925                 1.5401
 IR Inten    --      4.2056                 1.8595                16.6963

                     34                     35                     36
                      A                      A                      A
 Frequencies --    788.8097               804.2949               835.8954
 Red. masses --      3.8011                 3.0496                 4.8503
 Frc consts  --      1.3935                 1.1623                 1.9967
 IR Inten    --      0.4429                 1.7282                 7.4740

                     37                     38                     39
                      A                      A                      A
 Frequencies --    856.1452               858.8063               870.8401
 Red. masses --      1.9537                 1.6159                 2.1199
 Frc consts  --      0.8437                 0.7022                 0.9472
 IR Inten    --      8.1537                 0.4382                 7.4843

                     40                     41                     42
                      A                      A                      A
 Frequencies --    873.8426               896.2188               904.3821
 Red. masses --      2.5787                 1.5984                 1.5769
 Frc consts  --      1.1601                 0.7564                 0.7599
 IR Inten    --      2.3539                 2.5541                 0.2277

                     43                     44                     45
                      A                      A                      A
 Frequencies --    920.0818               956.5719               976.9952
 Red. masses --      2.2716                 2.2169                 2.0216
 Frc consts  --      1.1330                 1.1952                 1.1369
 IR Inten    --      4.3309                 0.6856                 2.2269

                     46                     47                     48
                      A                      A                      A
 Frequencies --    977.1085               984.6233               995.5521
 Red. masses --      1.4908                 2.1032                 1.3413
 Frc consts  --      0.8386                 1.2014                 0.7833
 IR Inten    --      0.7183                 1.4277                 0.1534

                     49                     50                     51
                      A                      A                      A
 Frequencies --   1003.8730              1017.7326              1034.3426
 Red. masses --      7.0681                 2.0702                 4.6608
 Frc consts  --      4.1967                 1.2633                 2.9379
 IR Inten    --      4.2427                 2.9651                28.8171

                     52                     53                     54
                      A                      A                      A
 Frequencies --   1050.9986              1052.0404              1071.7727
 Red. masses --      2.5408                 2.7392                 1.9784
 Frc consts  --      1.6535                 1.7862                 1.3390
 IR Inten    --      1.6846                 1.5385                 5.2698

                     55                     56                     57
                      A                      A                      A
 Frequencies --   1080.3540              1096.1585              1124.4925
 Red. masses --      1.8771                 1.7650                 1.4575
 Frc consts  --      1.2909                 1.2495                 1.0859
 IR Inten    --     23.9303                 0.6949                 0.5009

                     58                     59                     60
                      A                      A                      A
 Frequencies --   1136.3984              1145.9275              1153.9151
 Red. masses --      1.3255                 2.3179                 1.6544
 Frc consts  --      1.0086                 1.7933                 1.2979
 IR Inten    --      2.3390               117.9392                18.6721

                     61                     62                     63
                      A                      A                      A
 Frequencies --   1165.9702              1185.2106              1210.2470
 Red. masses --      1.1131                 1.2726                 1.1493
 Frc consts  --      0.8916                 1.0532                 0.9918
 IR Inten    --      0.4965                 0.8473                 0.5808

                     64                     65                     66
                      A                      A                      A
 Frequencies --   1223.1945              1226.0049              1230.5085
 Red. masses --      1.6753                 1.3613                 2.3989
 Frc consts  --      1.4768                 1.2055                 2.1401
 IR Inten    --     38.2087                32.6364                55.2622

                     67                     68                     69
                      A                      A                      A
 Frequencies --   1241.3988              1269.8384              1274.6727
 Red. masses --      1.9793                 1.5242                 1.6095
 Frc consts  --      1.7971                 1.4481                 1.5408
 IR Inten    --      7.8459                 7.0071                 1.2309

                     70                     71                     72
                      A                      A                      A
 Frequencies --   1297.6756              1307.0089              1315.7004
 Red. masses --      1.4113                 1.6455                 4.3989
 Frc consts  --      1.4002                 1.6562                 4.4865
 IR Inten    --      1.2763                19.4752               558.9919

                     73                     74                     75
                      A                      A                      A
 Frequencies --   1330.7243              1339.6310              1347.0160
 Red. masses --      1.5781                 1.8281                 1.5382
 Frc consts  --      1.6465                 1.9329                 1.6445
 IR Inten    --      4.3802                 2.3785                 0.1959

                     76                     77                     78
                      A                      A                      A
 Frequencies --   1351.2051              1357.5510              1365.2117
 Red. masses --      1.9344                 1.9968                 1.5298
 Frc consts  --      2.0808                 2.1682                 1.6799
 IR Inten    --      5.3893                 3.5167                 5.1197

                     79                     80                     81
                      A                      A                      A
 Frequencies --   1382.8308              1388.7160              1395.4160
 Red. masses --      1.7346                 1.4997                 1.5139
 Frc consts  --      1.9543                 1.7041                 1.7368
 IR Inten    --      1.9167                 0.5487                 2.9652

                     82                     83                     84
                      A                      A                      A
 Frequencies --   1400.2016              1410.9060              1452.8523
 Red. masses --      1.5418                 1.4437                 2.8322
 Frc consts  --      1.7809                 1.6933                 3.5222
 IR Inten    --      1.4120                 1.2644                18.9463

                     85                     86                     87
                      A                      A                      A
 Frequencies --   1492.6337              1509.4100              1511.9168
 Red. masses --      1.2095                 1.0856                 1.0484
 Frc consts  --      1.5877                 1.4573                 1.4120
 IR Inten    --     20.4065                 0.4655                 5.7486

                     88                     89                     90
                      A                      A                      A
 Frequencies --   1512.8936              1522.4545              1525.0429
 Red. masses --      1.0893                 1.0945                 1.0487
 Frc consts  --      1.4690                 1.4946                 1.4370
 IR Inten    --      4.3087                 9.3747                 9.5333

                     91                     92                     93
                      A                      A                      A
 Frequencies --   1526.3483              1542.9593              1559.3181
 Red. masses --      1.0942                 1.0921                 2.3252
 Frc consts  --      1.5019                 1.5319                 3.3310
 IR Inten    --      6.8478                 1.0348                 2.2255

                     94                     95                     96
                      A                      A                      A
 Frequencies --   1620.0871              1668.6505              1799.9412
 Red. masses --      6.4813                 5.6911                11.6577
 Frc consts  --     10.0228                 9.3364                22.2526
 IR Inten    --      8.5105                65.0463               256.2559

                     97                     98                     99
                      A                      A                      A
 Frequencies --   1823.3579              3032.9744              3033.6490
 Red. masses --     11.2365                 1.0618                 1.0625
 Frc consts  --     22.0103                 5.7547                 5.7613
 IR Inten    --    235.0243                16.5661                 5.2374

                    100                    101                    102
                      A                      A                      A
 Frequencies --   3034.7824              3039.1092              3046.9219
 Red. masses --      1.0607                 1.0631                 1.0614
 Frc consts  --      5.7557                 5.7853                 5.8057
 IR Inten    --     37.7836                30.0900                39.3483

                    103                    104                    105
                      A                      A                      A
 Frequencies --   3056.1006              3072.5502              3074.1637
 Red. masses --      1.0782                 1.1050                 1.0295
 Frc consts  --      5.9334                 6.1461                 5.7323
 IR Inten    --     72.1663                 3.6103                45.7017

                    106                    107                    108
                      A                      A                      A
 Frequencies --   3076.0432              3077.1503              3082.4261
 Red. masses --      1.1041                 1.1041                 1.1034
 Frc consts  --      6.1554                 6.1598                 6.1767
 IR Inten    --     28.9522                44.9128                31.9153

                    109                    110                    111
                      A                      A                      A
 Frequencies --   3086.9780              3089.8565              3091.7157
 Red. masses --      1.1041                 1.0862                 1.0869
 Frc consts  --      6.1988                 6.1101                 6.1211
 IR Inten    --     34.9041                39.8827                20.4288

                    112                    113                    114
                      A                      A                      A
 Frequencies --   3148.3780              3179.6670              3194.9089
 Red. masses --      1.1075                 1.1071                 1.0879
 Frc consts  --      6.4678                 6.5949                 6.5429
 IR Inten    --     21.3269                18.0374                13.8685

                    115                    116                    117
                      A                      A                      A
 Frequencies --   3218.3802              3224.4479              3234.0514
 Red. masses --      1.0870                 1.0927                 1.0935
 Frc consts  --      6.6337                 6.6936                 6.7384
 IR Inten    --      5.3489                 3.9798                 6.2297

 - Thermochemistry -
 -------------------
 Temperature   298.150 Kelvin.  Pressure   1.00000 Atm.
 Atom     1 has atomic number  8 and mass  15.99491

 Molecular mass:   284.14124 amu.
 Principal axes and moments of inertia in atomic units:
                           1         2         3
     Eigenvalues --  1857.25818********************
           X            0.99994  -0.00989  -0.00428
           Y            0.00965   0.99853  -0.05340
           Z            0.00480   0.05335   0.99856
 This molecule is an asymmetric top.
 Rotational symmetry number  1.
 Warning -- assumption of classical behavior for rotation
           may cause significant error
 Rotational temperatures (Kelvin)      0.04664     0.00631     0.00611
 Rotational constants (GHZ):           0.97172     0.13145     0.12734
 Zero-point vibrational energy     916905.4 (Joules/Mol)
                                  219.14566 (Kcal/Mol)
 Warning -- explicit consideration of  26 degrees of freedom as
           vibrations may cause significant error
 Vibrational temperatures:     45.12    65.16    99.58   112.36   137.26
          (Kelvin)            173.48   199.57   231.16   278.77   307.57
                              387.78   406.92   452.46   477.50   515.34
                              538.68   568.07   594.43   602.07   606.39
                              639.23   653.34   688.83   724.41   785.99
                              887.14   914.54   941.78   942.84  1028.95
                             1034.85  1041.28  1114.06  1134.92  1157.20
                             1202.67  1231.80  1235.63  1252.94  1257.26
                             1289.46  1301.20  1323.79  1376.29  1405.68
                             1405.84  1416.65  1432.38  1444.35  1464.29
                             1488.19  1512.15  1513.65  1542.04  1554.39
                             1577.13  1617.89  1635.02  1648.73  1660.23
                             1677.57  1705.25  1741.28  1759.90  1763.95
                             1770.43  1786.10  1827.01  1833.97  1867.07
                             1880.49  1893.00  1914.62  1927.43  1938.06
                             1944.08  1953.21  1964.24  1989.59  1998.05
                             2007.69  2014.58  2029.98  2090.33  2147.57
                             2171.70  2175.31  2176.72  2190.47  2194.20
                             2196.07  2219.97  2243.51  2330.94  2400.82
                             2589.71  2623.41  4363.77  4364.74  4366.37
                             4372.60  4383.84  4397.05  4420.71  4423.04
                             4425.74  4427.33  4434.92  4441.47  4445.61
                             4448.29  4529.81  4574.83  4596.76  4630.53
                             4639.26  4653.08

 Zero-point correction=                           0.349231 (Hartree/Particle)
 Thermal correction to Energy=                    0.366378
 Thermal correction to Enthalpy=                  0.367323
 Thermal correction to Gibbs Free Energy=         0.303834
 Sum of electronic and zero-point Energies=           -923.314195
 Sum of electronic and thermal Energies=              -923.297048
 Sum of electronic and thermal Enthalpies=            -923.296104
 Sum of electronic and thermal Free Energies=         -923.359593

                     E (Thermal)             CV                S
                      KCal/Mol        Cal/Mol-Kelvin    Cal/Mol-Kelvin
 Total                  229.906             69.516            133.624
 Electronic               0.000              0.000              0.000
 Translational            0.889              2.981             42.831
 Rotational               0.889              2.981             34.246
 Vibrational            228.128             63.555             56.547
 Vibration     1          0.594              1.983              5.741
 Vibration     2          0.595              1.979              5.013
 Vibration     3          0.598              1.969              4.176
 Vibration     4          0.599              1.964              3.938
 Vibration     5          0.603              1.952              3.546
 Vibration     6          0.609              1.932              3.091
 Vibration     7          0.614              1.915              2.822
 Vibration     8          0.622              1.891              2.542
 Vibration     9          0.635              1.849              2.192
 Vibration    10          0.644              1.820              2.011
 Vibration    11          0.674              1.729              1.599
 Vibration    12          0.682              1.705              1.517
 Vibration    13          0.702              1.646              1.339
 Vibration    14          0.714              1.612              1.251
 Vibration    15          0.733              1.558              1.130
 Vibration    16          0.746              1.525              1.062
 Vibration    17          0.762              1.481              0.982
 Vibration    18          0.777              1.442              0.916
 Vibration    19          0.781              1.430              0.897
 Vibration    20          0.784              1.424              0.887
 Vibration    21          0.804              1.373              0.813
 Vibration    22          0.813              1.352              0.783
 Vibration    23          0.835              1.297              0.713
 Vibration    24          0.859              1.242              0.649
 Vibration    25          0.901              1.148              0.552
 Vibration    26          0.976              0.997              0.422

 Normal termination of Gaussian 16 at Fri Feb 23 20:24:54 2024.
