 Gaussian 16, Revision A.03,
 Gaussian 16:  EM64M-G16RevA.03 25-Dec-2016

 ---------------------
 # freq b3lyp/6-31g(d)
 ---------------------

 ---------
 good luck
 ---------
 Symbolic Z-matrix:
 Charge =  0 Multiplicity = 1

                         Standard orientation:
 ---------------------------------------------------------------------
 Center     Atomic      Atomic             Coordinates (Angstroms)
 Number     Number       Type             X           Y           Z
 ---------------------------------------------------------------------
      1          8           0        4.416630   -2.323099   -0.000021
      2          6           0        3.762145   -1.298245    0.000012
      3          6           0        3.304964   -0.582924   -1.267973
      4          6           0        1.757749   -0.515947   -1.262123
      5          6           0        3.884745    0.851909   -1.257338
      6          6           0        3.391482    1.592267    0.000186
      7          6           0        3.884603    0.851739    1.257666
      8          6           0        3.304820   -0.583096    1.268041
      9          6           0        1.757607   -0.516117    1.262025
     10          6           0        1.233847    0.230365   -0.000028
     11          6           0       -0.299983    0.243092   -0.000115
     12          6           0       -1.049292    1.429699   -0.000047
     13          6           0       -2.442282    1.407047   -0.000127
     14          6           0       -3.133181    0.191661   -0.000288
     15          6           0       -4.621243    0.227919   -0.000383
     16          8           0       -5.286851    1.245447    0.000137
     17          8           0       -5.169083   -1.010712    0.000006
     18          6           0       -6.603850   -1.043744    0.000502
     19          6           0       -2.401546   -1.003857   -0.000355
     20          6           0       -1.011584   -0.970978   -0.000272
     21          6           0        1.850438    1.652116    0.000103
     22          1           0        3.662245   -1.149043   -2.134189
     23          1           0        1.345638   -1.531009   -1.301750
     24          1           0        1.409797    0.001004   -2.166310
     25          1           0        3.564446    1.380353   -2.165451
     26          1           0        4.981773    0.817681   -1.275825
     27          1           0        3.787916    2.615695    0.000278
     28          1           0        4.981628    0.817509    1.276273
     29          1           0        3.564200    1.380061    2.165814
     30          1           0        3.662003   -1.149331    2.134222
     31          1           0        1.345493   -1.531186    1.301467
     32          1           0        1.409551    0.000711    2.166243
     33          1           0       -0.550240    2.391906    0.000073
     34          1           0       -3.012527    2.330377   -0.000074
     35          1           0       -6.871593   -2.100860    0.000777
     36          1           0       -7.000457   -0.546393   -0.888734
     37          1           0       -6.999854   -0.546085    0.889834
     38          1           0       -2.924432   -1.953782   -0.000477
     39          1           0       -0.472606   -1.914063   -0.000331
     40          1           0        1.507359    2.207905    0.882821
     41          1           0        1.507461    2.208023   -0.882581
 ---------------------------------------------------------------------

 SCF Done:  E(RB3LYP) =  -923.663562264     A.U. after   15 cycles

 The electronic state is 1-A.
 Alpha  occ. eigenvalues --  -19.19211 -19.13530 -19.13240 -10.31374 -10.26632
 Alpha  occ. eigenvalues --  -10.24053 -10.21518 -10.20969 -10.20434 -10.20070
 Alpha  occ. eigenvalues --  -10.19993 -10.19838 -10.19730 -10.19729 -10.19719
 Alpha  occ. eigenvalues --  -10.19710 -10.19708 -10.19624 -10.19476 -10.19475
 Alpha  occ. eigenvalues --  -10.19191  -1.09993  -1.03358  -1.01025  -0.88621
 Alpha  occ. eigenvalues --   -0.86229  -0.80258  -0.78466  -0.77211  -0.75485
 Alpha  occ. eigenvalues --   -0.75270  -0.71702  -0.68228  -0.65850  -0.63430
 Alpha  occ. eigenvalues --   -0.61147  -0.60757  -0.58645  -0.57507  -0.56359
 Alpha  occ. eigenvalues --   -0.53657  -0.51179  -0.48432  -0.48013  -0.47566
 Alpha  occ. eigenvalues --   -0.46592  -0.45924  -0.45641  -0.44609  -0.44507
 Alpha  occ. eigenvalues --   -0.44353  -0.44156  -0.42901  -0.42417  -0.41215
 Alpha  occ. eigenvalues --   -0.40716  -0.40496  -0.40336  -0.40090  -0.37277
 Alpha  occ. eigenvalues --   -0.36966  -0.36657  -0.36605  -0.35483  -0.34878
 Alpha  occ. eigenvalues --   -0.34466  -0.34027  -0.33710  -0.31175  -0.30444
 Alpha  occ. eigenvalues --   -0.30106  -0.29788  -0.27276  -0.25910  -0.25155
 Alpha  occ. eigenvalues --   -0.23269
 Alpha virt. eigenvalues --   -0.04520  -0.01260  -0.00882   0.05574   0.06423
 Alpha virt. eigenvalues --    0.09173   0.10959   0.11360   0.11635   0.11792
 Alpha virt. eigenvalues --    0.12801   0.12959   0.13447   0.14093   0.14668

 Mulliken charges:
               1
     1  O   -0.458242
     2  C    0.453690
     3  C   -0.167369
     4  C   -0.289439
     5  C   -0.280550
     6  C   -0.097223
     7  C   -0.280551
     8  C   -0.167369
     9  C   -0.289438
    10  C   -0.003559
    11  C    0.176119
    12  C   -0.199121
    13  C   -0.162513
    14  C    0.058073
    15  C    0.589994
    16  O   -0.492252
    17  O   -0.468044
    18  C   -0.215902
    19  C   -0.167255
    20  C   -0.193571
    21  C   -0.294506
    22  H    0.145149
    23  H    0.148373
    24  H    0.145618
    25  H    0.139468
    26  H    0.145976
    27  H    0.128455
    28  H    0.145976
    29  H    0.139468
    30  H    0.145149
    31  H    0.148373
    32  H    0.145619
    33  H    0.135649
    34  H    0.161956
    35  H    0.163506
    36  H    0.171304
    37  H    0.171317
    38  H    0.156001
    39  H    0.134869
    40  H    0.138404
    41  H    0.138403
 Sum of Mulliken charges =  -0.00000

 Dipole moment (field-independent basis, Debye):
    X=             -0.3267    Y=              1.0255    Z=             -0.0001  Tot=              1.0762
 Quadrupole moment (field-independent basis, Debye-Ang):
   XX=           -129.5825   YY=           -127.0916   ZZ=           -120.8750
   XY=             25.5361   XZ=              0.0006   YZ=             -0.0007

  Exact polarizability: 265.690  -1.218 176.053  -0.002   0.003 125.891
 Approx polarizability: 332.863 -16.668 309.870  -0.003   0.011 192.604

                      1                      2                      3
                      A                      A                      A
 Frequencies --     36.3665                39.5467                65.6551
 Red. masses --      4.9770                 4.6624                 8.1168
 Frc consts  --      0.0039                 0.0043                 0.0206
 IR Inten    --      2.4572                 0.0663                 2.8248

                      4                      5                      6
                      A                      A                      A
 Frequencies --     75.4297               107.2447               114.9977
 Red. masses --      4.0440                 5.6356                 2.5069
 Frc consts  --      0.0136                 0.0382                 0.0195
 IR Inten    --      0.3149                 1.0837                 1.4692

                      7                      8                      9
                      A                      A                      A
 Frequencies --    137.7962               176.7898               188.4332
 Red. masses --      1.3074                 4.0347                 4.0414
 Frc consts  --      0.0146                 0.0743                 0.0845
 IR Inten    --      0.0169                 0.7549                 1.9930

                     10                     11                     12
                      A                      A                      A
 Frequencies --    207.6741               277.5442               280.2275
 Red. masses --      6.4546                 2.6394                 2.3294
 Frc consts  --      0.1640                 0.1198                 0.1078
 IR Inten    --      0.2816                 0.5537                 0.9010

                     13                     14                     15
                      A                      A                      A
 Frequencies --    297.4584               341.5414               352.2080
 Red. masses --      3.6209                 3.8888                 4.5032
 Frc consts  --      0.1888                 0.2673                 0.3291
 IR Inten    --      6.4944                13.8378                 2.7399

                     16                     17                     18
                      A                      A                      A
 Frequencies --    373.1683               401.9429               410.8865
 Red. masses --      4.1350                 4.7401                 2.8852
 Frc consts  --      0.3393                 0.4512                 0.2870
 IR Inten    --      1.0724                 0.2524                 1.2379

                     19                     20                     21
                      A                      A                      A
 Frequencies --    419.5185               429.5372               444.6081
 Red. masses --      3.0508                 3.1818                 1.8807
 Frc consts  --      0.3163                 0.3459                 0.2190
 IR Inten    --      0.0008                 1.4939                 0.5786

                     22                     23                     24
                      A                      A                      A
 Frequencies --    462.0751               467.4915               501.8418
 Red. masses --      2.4266                 4.3058                 5.7745
 Frc consts  --      0.3053                 0.5544                 0.8568
 IR Inten    --      0.6578                11.2032                 5.5697

                     25                     26                     27
                      A                      A                      A
 Frequencies --    548.4779               614.6425               636.8642
 Red. masses --      3.0573                 5.4119                 3.4705
 Frc consts  --      0.5419                 1.2046                 0.8293
 IR Inten    --      1.7960                 0.1084                 1.8961

                     28                     29                     30
                      A                      A                      A
 Frequencies --    653.2911               654.7530               715.6177
 Red. masses --      6.8429                 6.0309                 3.9581
 Frc consts  --      1.7207                 1.5233                 1.1943
 IR Inten    --      0.3547                 0.1546                 3.6522

                     31                     32                     33
                      A                      A                      A
 Frequencies --    715.9320               723.8112               776.5226
 Red. masses --      3.8456                 5.0387                 4.6260
 Frc consts  --      1.1613                 1.5553                 1.6435
 IR Inten    --     21.4649                 2.2330                17.4964

                     34                     35                     36
                      A                      A                      A
 Frequencies --    788.1143               806.1459               834.9874
 Red. masses --      3.8136                 2.9699                 4.8653
 Frc consts  --      1.3956                 1.1372                 1.9986
 IR Inten    --      0.3436                 1.0888                 9.0725

                     37                     38                     39
                      A                      A                      A
 Frequencies --    851.4861               863.3671               871.0689
 Red. masses --      2.0723                 1.3234                 3.7251
 Frc consts  --      0.8852                 0.5812                 1.6653
 IR Inten    --      7.8155                 0.6356                 0.1880

                     40                     41                     42
                      A                      A                      A
 Frequencies --    874.6732               900.9140               902.3339
 Red. masses --      2.0169                 1.5798                 1.5942
 Frc consts  --      0.9091                 0.7555                 0.7648
 IR Inten    --      6.7874                 0.0073                 2.2484

                     43                     44                     45
                      A                      A                      A
 Frequencies --    918.2410               955.5404               977.7450
 Red. masses --      2.3804                 2.1575                 2.2747
 Frc consts  --      1.1826                 1.1607                 1.2812
 IR Inten    --      6.9186                 0.3204                 0.6624

                     46                     47                     48
                      A                      A                      A
 Frequencies --    981.0402               985.6003               993.2752
 Red. masses --      1.3397                 2.2095                 1.3281
 Frc consts  --      0.7597                 1.2646                 0.7720
 IR Inten    --      0.0155                 2.5792                 0.2459

                     49                     50                     51
                      A                      A                      A
 Frequencies --   1004.3464              1017.5289              1034.6580
 Red. masses --      7.3132                 2.0721                 4.6747
 Frc consts  --      4.3463                 1.2640                 2.9485
 IR Inten    --      4.4438                 2.8978                29.8102

                     52                     53                     54
                      A                      A                      A
 Frequencies --   1049.2824              1052.3668              1072.1536
 Red. masses --      2.3535                 3.0208                 2.0403
 Frc consts  --      1.5267                 1.9711                 1.3818
 IR Inten    --      0.1399                 3.3762                 1.1017

                     55                     56                     57
                      A                      A                      A
 Frequencies --   1078.4201              1097.7543              1121.5277
 Red. masses --      1.7865                 1.7622                 1.4947
 Frc consts  --      1.2241                 1.2512                 1.1077
 IR Inten    --     29.9878                 2.2792                 1.3289

                     58                     59                     60
                      A                      A                      A
 Frequencies --   1140.7347              1146.1440              1154.1299
 Red. masses --      1.3123                 2.5331                 1.6271
 Frc consts  --      1.0062                 1.9605                 1.2770
 IR Inten    --      0.0922               112.5199                19.5675

                     61                     62                     63
                      A                      A                      A
 Frequencies --   1164.1948              1185.2388              1206.2641
 Red. masses --      1.0976                 1.2727                 1.1984
 Frc consts  --      0.8765                 1.0534                 1.0274
 IR Inten    --      0.0031                 0.8546                 5.6553

                     64                     65                     66
                      A                      A                      A
 Frequencies --   1223.5908              1225.5472              1235.5347
 Red. masses --      1.6131                 1.2996                 2.5970
 Frc consts  --      1.4229                 1.1501                 2.3358
 IR Inten    --     46.7364                47.9288                24.7368

                     67                     68                     69
                      A                      A                      A
 Frequencies --   1239.6044              1269.2922              1275.0177
 Red. masses --      1.9300                 1.5287                 1.6722
 Frc consts  --      1.7473                 1.4511                 1.6017
 IR Inten    --      8.0712                 5.9663                 0.9380

                     70                     71                     72
                      A                      A                      A
 Frequencies --   1297.3680              1303.4389              1314.3361
 Red. masses --      1.3449                 1.6554                 4.1110
 Frc consts  --      1.3337                 1.6571                 4.1842
 IR Inten    --      0.0027                 9.0230               548.9338

                     73                     74                     75
                      A                      A                      A
 Frequencies --   1331.0556              1339.7602              1346.5660
 Red. masses --      1.5687                 1.8957                 1.6870
 Frc consts  --      1.6375                 2.0048                 1.8023
 IR Inten    --      5.3806                10.8300                 0.8083

                     76                     77                     78
                      A                      A                      A
 Frequencies --   1350.6714              1359.4851              1365.8205
 Red. masses --      2.0177                 1.4168                 1.9056
 Frc consts  --      2.1687                 1.5428                 2.0945
 IR Inten    --     17.0159                 0.9895                14.6054

                     79                     80                     81
                      A                      A                      A
 Frequencies --   1381.2606              1389.2047              1396.2642
 Red. masses --      1.6708                 1.5712                 1.4956
 Frc consts  --      1.8781                 1.7865                 1.7179
 IR Inten    --      2.7406                 0.4439                 1.7745

                     82                     83                     84
                      A                      A                      A
 Frequencies --   1398.0862              1412.9656              1452.3326
 Red. masses --      1.5233                 1.4562                 2.8367
 Frc consts  --      1.7543                 1.7129                 3.5253
 IR Inten    --      1.8928                 1.2856                16.8891

                     85                     86                     87
                      A                      A                      A
 Frequencies --   1492.5598              1508.0988              1511.9604
 Red. masses --      1.2078                 1.0841                 1.0484
 Frc consts  --      1.5852                 1.4527                 1.4120
 IR Inten    --     20.3590                 0.0081                 5.6947

                     88                     89                     90
                      A                      A                      A
 Frequencies --   1516.2266              1521.9960              1523.6356
 Red. masses --      1.0924                 1.0918                 1.0959
 Frc consts  --      1.4797                 1.4902                 1.4989
 IR Inten    --      2.9518                10.8546                 8.7998

                     91                     92                     93
                      A                      A                      A
 Frequencies --   1525.0604              1543.3427              1558.9360
 Red. masses --      1.0487                 1.0923                 2.3131
 Frc consts  --      1.4370                 1.5329                 3.3121
 IR Inten    --      8.4315                 0.3388                 2.3378

                     94                     95                     96
                      A                      A                      A
 Frequencies --   1620.3520              1668.3624              1800.1356
 Red. masses --      6.4877                 5.6854                11.6564
 Frc consts  --     10.0359                 9.3237                22.2549
 IR Inten    --      3.9915                67.4698               263.1997

                     97                     98                     99
                      A                      A                      A
 Frequencies --   1821.8166              3029.6906              3034.2349
 Red. masses --     11.2451                 1.0606                 1.0646
 Frc consts  --     21.9898                 5.7359                 5.7749
 IR Inten    --    225.2523                18.3479                12.0170

                    100                    101                    102
                      A                      A                      A
 Frequencies --   3034.8321              3041.8872              3045.2430
 Red. masses --      1.0598                 1.0617                 1.0639
 Frc consts  --      5.7510                 5.7879                 5.8131
 IR Inten    --     29.2638                35.8186                31.2729

                    103                    104                    105
                      A                      A                      A
 Frequencies --   3055.9568              3070.8367              3074.0319
 Red. masses --      1.0798                 1.1048                 1.0295
 Frc consts  --      5.9414                 6.1381                 5.7318
 IR Inten    --     75.7074                 4.9878                45.0744

                    106                    107                    108
                      A                      A                      A
 Frequencies --   3074.7702              3077.1587              3085.8334
 Red. masses --      1.1047                 1.1039                 1.1008
 Frc consts  --      6.1534                 6.1586                 6.1762
 IR Inten    --     34.5801                58.1143                29.4215

                    109                    110                    111
                      A                      A                      A
 Frequencies --   3088.6818              3089.6736              3091.7342
 Red. masses --      1.0989                 1.0881                 1.0896
 Frc consts  --      6.1765                 6.1201                 6.1365
 IR Inten    --     22.1702                22.5167                34.3001

                    112                    113                    114
                      A                      A                      A
 Frequencies --   3148.1306              3179.7340              3194.5124
 Red. masses --      1.1075                 1.1071                 1.0882
 Frc consts  --      6.4667                 6.5951                 6.5428
 IR Inten    --     21.3582                17.7164                14.0435

                    115                    116                    117
                      A                      A                      A
 Frequencies --   3216.0361              3229.9533              3231.4507
 Red. masses --      1.0874                 1.0923                 1.0932
 Frc consts  --      6.6264                 6.7141                 6.7258
 IR Inten    --      1.8368                11.1689                 1.1588

 - Thermochemistry -
 -------------------
 Temperature   298.150 Kelvin.  Pressure   1.00000 Atm.
 Atom     1 has atomic number  8 and mass  15.99491

 Molecular mass:   284.14124 amu.
 Principal axes and moments of inertia in atomic units:
                           1         2         3
     Eigenvalues --  1911.45386********************
           X            0.99991   0.01304  -0.00000
           Y           -0.01304   0.99991  -0.00000
           Z            0.00000   0.00000   1.00000
 This molecule is an asymmetric top.
 Rotational symmetry number  1.
 Warning -- assumption of classical behavior for rotation
           may cause significant error
 Rotational temperatures (Kelvin)      0.04531     0.00644     0.00607
 Rotational constants (GHZ):           0.94417     0.13427     0.12654
 Zero-point vibrational energy     916897.2 (Joules/Mol)
                                  219.14369 (Kcal/Mol)
 Warning -- explicit consideration of  26 degrees of freedom as
           vibrations may cause significant error
 Vibrational temperatures:     52.32    56.90    94.46   108.53   154.30
          (Kelvin)            165.46   198.26   254.36   271.11   298.80
                              399.32   403.18   427.98   491.40   506.75
                              536.91   578.31   591.17   603.59   618.01
                              639.69   664.82   672.62   722.04   789.14
                              884.33   916.31   939.94   942.04  1029.61
                             1030.07  1041.40  1117.24  1133.92  1159.86
                             1201.36  1225.10  1242.19  1253.27  1258.46
                             1296.21  1298.26  1321.14  1374.81  1406.76
                             1411.50  1418.06  1429.10  1445.03  1464.00
                             1488.64  1509.68  1514.12  1542.59  1551.61
                             1579.42  1613.63  1641.26  1649.05  1660.54
                             1675.02  1705.29  1735.55  1760.47  1763.29
                             1777.66  1783.51  1826.23  1834.47  1866.62
                             1875.36  1891.04  1915.09  1927.62  1937.41
                             1943.31  1956.00  1965.11  1987.33  1998.76
                             2008.91  2011.53  2032.94  2089.58  2147.46
                             2169.82  2175.37  2181.51  2189.81  2192.17
                             2194.22  2220.53  2242.96  2331.33  2400.40
                             2589.99  2621.19  4359.05  4365.59  4366.45
                             4376.60  4381.43  4396.84  4418.25  4422.85
                             4423.91  4427.35  4439.83  4443.92  4445.35
                             4448.32  4529.46  4574.93  4596.19  4627.16
                             4647.18  4649.34

 Zero-point correction=                           0.349228 (Hartree/Particle)
 Thermal correction to Energy=                    0.366370
 Thermal correction to Enthalpy=                  0.367314
 Thermal correction to Gibbs Free Energy=         0.303841
 Sum of electronic and zero-point Energies=           -923.314335
 Sum of electronic and thermal Energies=              -923.297192
 Sum of electronic and thermal Enthalpies=            -923.296248
 Sum of electronic and thermal Free Energies=         -923.359721

                     E (Thermal)             CV                S
                      KCal/Mol        Cal/Mol-Kelvin    Cal/Mol-Kelvin
 Total                  229.901             69.512            133.589
 Electronic               0.000              0.000              0.000
 Translational            0.889              2.981             42.831
 Rotational               0.889              2.981             34.260
 Vibrational            228.123             63.550             56.499
 Vibration     1          0.594              1.982              5.448
 Vibration     2          0.594              1.981              5.282
 Vibration     3          0.597              1.971              4.280
 Vibration     4          0.599              1.965              4.006
 Vibration     5          0.606              1.943              3.318
 Vibration     6          0.608              1.937              3.183
 Vibration     7          0.614              1.916              2.834
 Vibration     8          0.628              1.871              2.362
 Vibration     9          0.633              1.856              2.243
 Vibration    10          0.641              1.829              2.064
 Vibration    11          0.679              1.715              1.549
 Vibration    12          0.680              1.710              1.532
 Vibration    13          0.691              1.678              1.431
 Vibration    14          0.721              1.592              1.205
 Vibration    15          0.729              1.571              1.156
 Vibration    16          0.745              1.527              1.067
 Vibration    17          0.768              1.466              0.956
 Vibration    18          0.775              1.447              0.923
 Vibration    19          0.782              1.428              0.894
 Vibration    20          0.791              1.406              0.860
 Vibration    21          0.804              1.373              0.812
 Vibration    22          0.820              1.334              0.760
 Vibration    23          0.825              1.322              0.745
 Vibration    24          0.857              1.246              0.654
 Vibration    25          0.904              1.143              0.547
 Vibration    26          0.974              1.001              0.425

 Normal termination of Gaussian 16 at Fri Feb 23 20:34:25 2024.
