 Gaussian 16, Revision A.03,
 Gaussian 16:  EM64M-G16RevA.03 25-Dec-2016

 ---------------------
 # freq b3lyp/6-31g(d)
 ---------------------

 ---------
 good luck
 ---------
 Symbolic Z-matrix:
 Charge =  0 Multiplicity = 1

                         Standard orientation:
 ---------------------------------------------------------------------
 Center     Atomic      Atomic             Coordinates (Angstroms)
 Number     Number       Type             X           Y           Z
 ---------------------------------------------------------------------
      1          8           0        4.601431    2.097739    0.000029
      2          6           0        3.869256    1.126779    0.000021
      3          6           0        3.355819    0.450830    1.268091
      4          6           0        1.808372    0.510894    1.262060
      5          6           0        3.816032   -1.026628    1.257406
      6          6           0        3.263901   -1.724373    0.000020
      7          6           0        3.816065   -1.026634   -1.257354
      8          6           0        3.355854    0.450824   -1.268059
      9          6           0        1.808407    0.510888   -1.262072
     10          6           0        1.225336   -0.190288   -0.000012
     11          6           0       -0.304107   -0.075682   -0.000032
     12          6           0       -1.149135   -1.195590   -0.000054
     13          6           0       -2.537240   -1.061101   -0.000070
     14          6           0       -3.123400    0.208555   -0.000063
     15          6           0       -4.596973    0.419091   -0.000081
     16          8           0       -5.138224    1.507866    0.000018
     17          8           0       -5.287319   -0.746310    0.000012
     18          6           0       -6.715851   -0.609681    0.000118
     19          6           0       -2.293888    1.337934   -0.000038
     20          6           0       -0.912442    1.193807   -0.000023
     21          6           0        1.723122   -1.657840   -0.000002
     22          1           0        3.758272    0.985723    2.134321
     23          1           0        1.419230    0.024265    2.166273
     24          1           0        1.480581    1.556186    1.301338
     25          1           0        3.453573   -1.527152    2.165481
     26          1           0        4.912178   -1.082517    1.275738
     27          1           0        3.575566   -2.776758    0.000026
     28          1           0        4.912212   -1.082523   -1.275657
     29          1           0        3.453630   -1.527163   -2.165437
     30          1           0        3.758331    0.985713   -2.134281
     31          1           0        1.419289    0.024256   -2.166293
     32          1           0        1.480617    1.556180   -1.301363
     33          1           0       -0.730926   -2.195633   -0.000061
     34          1           0       -3.167518   -1.943501   -0.000087
     35          1           0       -7.050800   -0.068897    0.889404
     36          1           0       -7.050936   -0.068957   -0.889154
     37          1           0       -7.106946   -1.627647    0.000183
     38          1           0       -2.752240    2.321522   -0.000031
     39          1           0       -0.297736    2.089377   -0.000003
     40          1           0        1.335891   -2.183777   -0.882781
     41          1           0        1.335867   -2.183772    0.882770
 ---------------------------------------------------------------------

 SCF Done:  E(RB3LYP) =  -923.663496695     A.U. after   15 cycles

 The electronic state is 1-A.
 Alpha  occ. eigenvalues --  -19.19213 -19.13506 -19.13248 -10.31378 -10.26612
 Alpha  occ. eigenvalues --  -10.24067 -10.21516 -10.20969 -10.20441 -10.20082
 Alpha  occ. eigenvalues --  -10.20009 -10.19829 -10.19716 -10.19714 -10.19693
 Alpha  occ. eigenvalues --  -10.19692 -10.19687 -10.19656 -10.19479 -10.19477
 Alpha  occ. eigenvalues --  -10.19222  -1.09996  -1.03330  -1.01029  -0.88621
 Alpha  occ. eigenvalues --   -0.86229  -0.80263  -0.78458  -0.77180  -0.75717
 Alpha  occ. eigenvalues --   -0.75054  -0.71737  -0.68222  -0.65754  -0.63596
 Alpha  occ. eigenvalues --   -0.61061  -0.60748  -0.58581  -0.57633  -0.56292
 Alpha  occ. eigenvalues --   -0.53725  -0.51121  -0.48496  -0.48019  -0.47546
 Alpha  occ. eigenvalues --   -0.46592  -0.45924  -0.45312  -0.45072  -0.44500
 Alpha  occ. eigenvalues --   -0.44253  -0.44080  -0.42836  -0.42414  -0.41436
 Alpha  occ. eigenvalues --   -0.40714  -0.40567  -0.40340  -0.39839  -0.37398
 Alpha  occ. eigenvalues --   -0.36965  -0.36605  -0.36228  -0.35939  -0.34738
 Alpha  occ. eigenvalues --   -0.34457  -0.34026  -0.33726  -0.31177  -0.30441
 Alpha  occ. eigenvalues --   -0.30113  -0.29796  -0.27271  -0.25873  -0.25189
 Alpha  occ. eigenvalues --   -0.23248
 Alpha virt. eigenvalues --   -0.04527  -0.01241  -0.00872   0.05568   0.06420
 Alpha virt. eigenvalues --    0.09205   0.10925   0.11349   0.11671   0.11830
 Alpha virt. eigenvalues --    0.12676   0.12965   0.13400   0.13943   0.14941

 Mulliken charges:
               1
     1  O   -0.457965
     2  C    0.453755
     3  C   -0.167335
     4  C   -0.289669
     5  C   -0.280476
     6  C   -0.097132
     7  C   -0.280476
     8  C   -0.167334
     9  C   -0.289669
    10  C   -0.003415
    11  C    0.175995
    12  C   -0.197895
    13  C   -0.168564
    14  C    0.058327
    15  C    0.589673
    16  O   -0.491663
    17  O   -0.468085
    18  C   -0.215895
    19  C   -0.161229
    20  C   -0.195110
    21  C   -0.294223
    22  H    0.145444
    23  H    0.145347
    24  H    0.149569
    25  H    0.139097
    26  H    0.145924
    27  H    0.127951
    28  H    0.145923
    29  H    0.139097
    30  H    0.145444
    31  H    0.145347
    32  H    0.149569
    33  H    0.133958
    34  H    0.154811
    35  H    0.171414
    36  H    0.171411
    37  H    0.162960
    38  H    0.163154
    39  H    0.136704
    40  H    0.137632
    41  H    0.137632
 Sum of Mulliken charges =  -0.00000

 Dipole moment (field-independent basis, Debye):
    X=             -0.7273    Y=             -4.2554    Z=             -0.0000  Tot=              4.3171
 Quadrupole moment (field-independent basis, Debye-Ang):
   XX=           -129.1583   YY=           -127.0969   ZZ=           -120.8782
   XY=             -2.6176   XZ=             -0.0002   YZ=             -0.0002

  Exact polarizability: 266.998   2.626 174.803  -0.000   0.000 125.897
 Approx polarizability: 333.644   6.054 309.120  -0.000   0.002 192.619

                      1                      2                      3
                      A                      A                      A
 Frequencies --     30.8274                48.1155                67.3240
 Red. masses --      4.8345                 5.0308                 8.3002
 Frc consts  --      0.0027                 0.0069                 0.0222
 IR Inten    --      0.1702                 0.3168                 1.4769

                      4                      5                      6
                      A                      A                      A
 Frequencies --     70.2495               105.6882               115.1471
 Red. masses --      3.9847                 5.4975                 2.3035
 Frc consts  --      0.0116                 0.0362                 0.0180
 IR Inten    --      1.0521                 2.7218                 1.3275

                      7                      8                      9
                      A                      A                      A
 Frequencies --    137.4600               178.4601               188.4075
 Red. masses --      1.3631                 4.2460                 4.0612
 Frc consts  --      0.0152                 0.0797                 0.0849
 IR Inten    --      0.0341                 0.3248                 2.0190

                     10                     11                     12
                      A                      A                      A
 Frequencies --    207.3972               278.5047               279.7275
 Red. masses --      5.8732                 2.6591                 2.3228
 Frc consts  --      0.1488                 0.1215                 0.1071
 IR Inten    --      0.4546                 0.2356                 1.2291

                     13                     14                     15
                      A                      A                      A
 Frequencies --    298.8636               342.0512               352.2860
 Red. masses --      3.7361                 3.9881                 4.4659
 Frc consts  --      0.1966                 0.2749                 0.3266
 IR Inten    --      8.3620                11.0489                 2.6700

                     16                     17                     18
                      A                      A                      A
 Frequencies --    374.6495               400.6335               401.6971
 Red. masses --      3.8163                 3.2155                 4.7635
 Frc consts  --      0.3156                 0.3041                 0.4529
 IR Inten    --      2.5097                 0.2249                 0.2900

                     19                     20                     21
                      A                      A                      A
 Frequencies --    418.9289               443.7572               443.7598
 Red. masses --      3.0301                 1.8883                 3.2055
 Frc consts  --      0.3133                 0.2191                 0.3719
 IR Inten    --      0.0023                 0.5561                 1.8146

                     22                     23                     24
                      A                      A                      A
 Frequencies --    453.6640               467.3911               502.8968
 Red. masses --      2.2834                 4.3098                 5.6490
 Frc consts  --      0.2769                 0.5547                 0.8417
 IR Inten    --      0.1680                11.2597                 5.7660

                     25                     26                     27
                      A                      A                      A
 Frequencies --    548.5294               614.2526               636.8628
 Red. masses --      3.0537                 5.4208                 3.4787
 Frc consts  --      0.5413                 1.2051                 0.8313
 IR Inten    --      1.8060                 0.1121                 1.9164

                     28                     29                     30
                      A                      A                      A
 Frequencies --    652.5871               655.0388               715.6122
 Red. masses --      6.5383                 6.2400                 3.9498
 Frc consts  --      1.6406                 1.5775                 1.1917
 IR Inten    --      0.3763                 0.5406                 3.4936

                     31                     32                     33
                      A                      A                      A
 Frequencies --    715.8805               723.9253               776.6347
 Red. masses --      3.8379                 5.0606                 4.6102
 Frc consts  --      1.1588                 1.5626                 1.6383
 IR Inten    --     21.4661                 2.3876                17.4779

                     34                     35                     36
                      A                      A                      A
 Frequencies --    788.2514               806.1964               835.5076
 Red. masses --      3.8103                 2.9762                 4.8746
 Frc consts  --      1.3949                 1.1397                 2.0049
 IR Inten    --      0.3159                 0.8664                 6.9025

                     37                     38                     39
                      A                      A                      A
 Frequencies --    852.6743               859.5329               870.9703
 Red. masses --      2.1634                 1.3699                 3.7168
 Frc consts  --      0.9267                 0.5963                 1.6612
 IR Inten    --      8.8176                 0.0092                 2.5932

                     40                     41                     42
                      A                      A                      A
 Frequencies --    877.5450               901.3271               902.1893
 Red. masses --      1.8506                 1.5679                 1.6076
 Frc consts  --      0.8397                 0.7505                 0.7710
 IR Inten    --      6.6560                 0.6705                 1.1908

                     43                     44                     45
                      A                      A                      A
 Frequencies --    918.3373               955.5730               977.4585
 Red. masses --      2.3811                 2.1246                 1.3629
 Frc consts  --      1.1831                 1.1430                 0.7672
 IR Inten    --      6.9039                 0.2917                 0.0024

                     46                     47                     48
                      A                      A                      A
 Frequencies --    978.0461               985.4935               996.0965
 Red. masses --      2.2830                 2.2278                 1.3187
 Frc consts  --      1.2867                 1.2748                 0.7709
 IR Inten    --      0.7407                 2.6743                 0.3762

                     49                     50                     51
                      A                      A                      A
 Frequencies --   1004.2505              1017.6833              1034.4691
 Red. masses --      7.0143                 2.0710                 4.6492
 Frc consts  --      4.1679                 1.2637                 2.9313
 IR Inten    --      4.4185                 2.9604                28.7606

                     52                     53                     54
                      A                      A                      A
 Frequencies --   1049.7058              1052.1390              1072.5211
 Red. masses --      2.3765                 2.9680                 2.0334
 Frc consts  --      1.5428                 1.9358                 1.3781
 IR Inten    --      0.3897                 2.8578                 1.2614

                     55                     56                     57
                      A                      A                      A
 Frequencies --   1078.6128              1098.4354              1121.5416
 Red. masses --      1.7901                 1.7546                 1.5026
 Frc consts  --      1.2270                 1.2473                 1.1136
 IR Inten    --     29.7780                 0.9011                 0.3326

                     58                     59                     60
                      A                      A                      A
 Frequencies --   1140.7088              1145.6046              1153.9635
 Red. masses --      1.3161                 2.4190                 1.6711
 Frc consts  --      1.0090                 1.8705                 1.3111
 IR Inten    --      0.0944               123.4912                16.5722

                     61                     62                     63
                      A                      A                      A
 Frequencies --   1164.4783              1185.2734              1205.9995
 Red. masses --      1.0967                 1.2726                 1.1956
 Frc consts  --      0.8762                 1.0534                 1.0246
 IR Inten    --      0.0042                 0.8459                 7.9737

                     64                     65                     66
                      A                      A                      A
 Frequencies --   1223.2381              1225.7373              1235.6943
 Red. masses --      1.6274                 1.3192                 2.4941
 Frc consts  --      1.4347                 1.1677                 2.2438
 IR Inten    --     51.6477                37.9926                29.1370

                     67                     68                     69
                      A                      A                      A
 Frequencies --   1239.7820              1269.3441              1275.4110
 Red. masses --      1.9315                 1.5315                 1.6725
 Frc consts  --      1.7492                 1.4538                 1.6029
 IR Inten    --      8.2033                 5.8647                 0.3379

                     70                     71                     72
                      A                      A                      A
 Frequencies --   1297.7480              1303.8765              1314.8092
 Red. masses --      1.3434                 1.6380                 4.4918
 Frc consts  --      1.3331                 1.6407                 4.5750
 IR Inten    --      0.0008                 0.1674               585.1478

                     73                     74                     75
                      A                      A                      A
 Frequencies --   1331.2181              1338.7252              1346.5330
 Red. masses --      1.5692                 1.8781                 1.6624
 Frc consts  --      1.6384                 1.9831                 1.7759
 IR Inten    --      5.4158                 3.7083                 0.1695

                     76                     77                     78
                      A                      A                      A
 Frequencies --   1351.9696              1359.6212              1365.3690
 Red. masses --      2.0434                 1.4146                 1.8812
 Frc consts  --      2.2005                 1.5407                 2.0663
 IR Inten    --      1.2133                 0.9573                 9.7908

                     79                     80                     81
                      A                      A                      A
 Frequencies --   1381.4327              1389.2630              1396.4239
 Red. masses --      1.6725                 1.5741                 1.4955
 Frc consts  --      1.8805                 1.7900                 1.7182
 IR Inten    --      2.7627                 0.1218                 1.7337

                     82                     83                     84
                      A                      A                      A
 Frequencies --   1398.1869              1413.2652              1452.7490
 Red. masses --      1.5250                 1.4568                 2.8343
 Frc consts  --      1.7566                 1.7143                 3.5243
 IR Inten    --      3.0161                 0.5394                19.9232

                     85                     86                     87
                      A                      A                      A
 Frequencies --   1492.6372              1508.4765              1511.8874
 Red. masses --      1.2088                 1.0838                 1.0483
 Frc consts  --      1.5867                 1.4531                 1.4119
 IR Inten    --     20.3182                 0.0440                 5.6891

                     88                     89                     90
                      A                      A                      A
 Frequencies --   1515.5322              1522.1305              1524.1424
 Red. masses --      1.0922                 1.0919                 1.0955
 Frc consts  --      1.4781                 1.4905                 1.4994
 IR Inten    --      1.9610                10.8654                 8.6826

                     91                     92                     93
                      A                      A                      A
 Frequencies --   1525.1611              1543.1422              1559.1528
 Red. masses --      1.0490                 1.0924                 2.3253
 Frc consts  --      1.4377                 1.5326                 3.3305
 IR Inten    --      9.2341                 0.4991                 2.0254

                     94                     95                     96
                      A                      A                      A
 Frequencies --   1620.0107              1668.4855              1799.9613
 Red. masses --      6.4843                 5.6892                11.6574
 Frc consts  --     10.0265                 9.3314                22.2525
 IR Inten    --      7.9773                65.3472               243.5595

                     97                     98                     99
                      A                      A                      A
 Frequencies --   1821.3423              3029.2001              3034.1179
 Red. masses --     11.2412                 1.0606                 1.0647
 Frc consts  --     21.9707                 5.7341                 5.7751
 IR Inten    --    239.3896                18.9522                11.6621

                    100                    101                    102
                      A                      A                      A
 Frequencies --   3034.8009              3042.1873              3045.5169
 Red. masses --      1.0598                 1.0619                 1.0641
 Frc consts  --      5.7509                 5.7901                 5.8152
 IR Inten    --     29.9094                35.4224                31.1756

                    103                    104                    105
                      A                      A                      A
 Frequencies --   3055.6346              3070.4787              3073.7420
 Red. masses --      1.0796                 1.1047                 1.0295
 Frc consts  --      5.9390                 6.1364                 5.7309
 IR Inten    --     75.9290                 6.6412                45.3682

                    106                    107                    108
                      A                      A                      A
 Frequencies --   3074.5471              3077.0831              3086.4832
 Red. masses --      1.1047                 1.1039                 1.1001
 Frc consts  --      6.1528                 6.1584                 6.1748
 IR Inten    --     34.4841                58.0922                30.7187

                    109                    110                    111
                      A                      A                      A
 Frequencies --   3089.2913              3090.0501              3092.1839
 Red. masses --      1.0977                 1.0887                 1.0906
 Frc consts  --      6.1725                 6.1247                 6.1438
 IR Inten    --     20.2830                20.1231                35.3806

                    112                    113                    114
                      A                      A                      A
 Frequencies --   3147.7322              3179.2923              3194.9068
 Red. masses --      1.1074                 1.1071                 1.0880
 Frc consts  --      6.4650                 6.5930                 6.5436
 IR Inten    --     21.3544                18.3022                12.7718

                    115                    116                    117
                      A                      A                      A
 Frequencies --   3217.8081              3224.6420              3233.5408
 Red. masses --      1.0870                 1.0927                 1.0935
 Frc consts  --      6.6311                 6.6943                 6.7363
 IR Inten    --      5.3104                 3.6679                 6.5536

 - Thermochemistry -
 -------------------
 Temperature   298.150 Kelvin.  Pressure   1.00000 Atm.
 Atom     1 has atomic number  8 and mass  15.99491

 Molecular mass:   284.14124 amu.
 Principal axes and moments of inertia in atomic units:
                           1         2         3
     Eigenvalues --  1848.78220********************
           X            0.99999  -0.00357  -0.00000
           Y            0.00357   0.99999  -0.00000
           Z            0.00000   0.00000   1.00000
 This molecule is an asymmetric top.
 Rotational symmetry number  1.
 Warning -- assumption of classical behavior for rotation
           may cause significant error
 Rotational temperatures (Kelvin)      0.04685     0.00639     0.00605
 Rotational constants (GHZ):           0.97618     0.13318     0.12612
 Zero-point vibrational energy     916898.7 (Joules/Mol)
                                  219.14405 (Kcal/Mol)
 Warning -- explicit consideration of  26 degrees of freedom as
           vibrations may cause significant error
 Vibrational temperatures:     44.35    69.23    96.86   101.07   152.06
          (Kelvin)            165.67   197.77   256.76   271.08   298.40
                              400.71   402.47   430.00   492.14   506.86
                              539.04   576.42   577.95   602.75   638.47
                              638.47   652.72   672.47   723.56   789.21
                              883.77   916.30   938.93   942.45  1029.61
                             1029.99  1041.57  1117.40  1134.12  1159.94
                             1202.11  1226.81  1236.68  1253.13  1262.59
                             1296.81  1298.05  1321.28  1374.86  1406.34
                             1407.19  1417.91  1433.16  1444.89  1464.22
                             1488.37  1510.29  1513.79  1543.12  1551.88
                             1580.40  1613.65  1641.23  1648.27  1660.30
                             1675.42  1705.34  1735.16  1759.97  1763.56
                             1777.89  1783.77  1826.30  1835.03  1867.17
                             1875.99  1891.72  1915.33  1926.13  1937.36
                             1945.18  1956.19  1964.46  1987.57  1998.84
                             2009.14  2011.68  2033.37  2090.18  2147.57
                             2170.36  2175.27  2180.51  2190.01  2192.90
                             2194.37  2220.24  2243.27  2330.83  2400.58
                             2589.74  2620.51  4358.34  4365.42  4366.40
                             4377.03  4381.82  4396.38  4417.73  4422.43
                             4423.59  4427.24  4440.76  4444.80  4445.89
                             4448.96  4528.88  4574.29  4596.76  4629.71
                             4639.54  4652.34

 Zero-point correction=                           0.349228 (Hartree/Particle)
 Thermal correction to Energy=                    0.366373
 Thermal correction to Enthalpy=                  0.367317
 Thermal correction to Gibbs Free Energy=         0.303833
 Sum of electronic and zero-point Energies=           -923.314268
 Sum of electronic and thermal Energies=              -923.297124
 Sum of electronic and thermal Enthalpies=            -923.296180
 Sum of electronic and thermal Free Energies=         -923.359664

                     E (Thermal)             CV                S
                      KCal/Mol        Cal/Mol-Kelvin    Cal/Mol-Kelvin
 Total                  229.902             69.514            133.613
 Electronic               0.000              0.000              0.000
 Translational            0.889              2.981             42.831
 Rotational               0.889              2.981             34.238
 Vibrational            228.125             63.552             56.544
 Vibration     1          0.594              1.984              5.775
 Vibration     2          0.595              1.978              4.893
 Vibration     3          0.598              1.970              4.230
 Vibration     4          0.598              1.968              4.146
 Vibration     5          0.605              1.945              3.347
 Vibration     6          0.608              1.937              3.180
 Vibration     7          0.614              1.916              2.839
 Vibration     8          0.629              1.869              2.344
 Vibration     9          0.633              1.856              2.243
 Vibration    10          0.641              1.829              2.066
 Vibration    11          0.679              1.713              1.543
 Vibration    12          0.680              1.711              1.535
 Vibration    13          0.692              1.676              1.423
 Vibration    14          0.721              1.591              1.203
 Vibration    15          0.729              1.571              1.156
 Vibration    16          0.746              1.524              1.061
 Vibration    17          0.766              1.469              0.960
 Vibration    18          0.767              1.466              0.956
 Vibration    19          0.782              1.429              0.896
 Vibration    20          0.803              1.375              0.815
 Vibration    21          0.803              1.375              0.815
 Vibration    22          0.812              1.353              0.785
 Vibration    23          0.825              1.322              0.745
 Vibration    24          0.858              1.244              0.651
 Vibration    25          0.904              1.143              0.547
 Vibration    26          0.974              1.002              0.426

 Normal termination of Gaussian 16 at Fri Feb 23 20:15:15 2024.
