 Gaussian 16, Revision A.03,
 Gaussian 16:  EM64M-G16RevA.03 25-Dec-2016

 ---------------------
 # freq b3lyp/6-31g(d)
 ---------------------

 ---------
 good luck
 ---------
 Symbolic Z-matrix:
 Charge =  0 Multiplicity = 1

                         Standard orientation:
 ---------------------------------------------------------------------
 Center     Atomic      Atomic             Coordinates (Angstroms)
 Number     Number       Type             X           Y           Z
 ---------------------------------------------------------------------
      1          8           0       -2.926113   -0.499268   -0.003001
      2          6           0       -1.770648   -0.143744   -0.072085
      3          6           0       -1.256944    1.304796   -0.190697
      4          6           0        0.256771    1.108150   -0.361850
      5          6           0        0.397356   -0.273361   -1.067717
      6          6           0       -0.517402   -1.009594   -0.047423
      7          6           0        0.166668   -0.632650    1.315378
      8          6           0        0.991123    0.629263    0.923872
      9          6           0        2.333243    0.135347    0.351571
     10          6           0        1.887980   -0.644528   -0.926822
     11          1           0       -1.548725    1.897549    0.684478
     12          1           0       -1.714960    1.779832   -1.067124
     13          1           0        0.765924    1.938854   -0.860757
     14          1           0        0.015813   -0.318995   -2.093310
     15          1           0       -0.708510   -2.073516   -0.197767
     16          1           0        0.809748   -1.442455    1.676309
     17          1           0       -0.572875   -0.438435    2.099992
     18          1           0        1.085238    1.369674    1.723884
     19          1           0        2.884682   -0.488832    1.063340
     20          1           0        2.978819    0.981855    0.088314
     21          1           0        2.031185   -1.726621   -0.829496
     22          1           0        2.453693   -0.326832   -1.809208
 ---------------------------------------------------------------------

 SCF Done:  E(RB3LYP) =  -425.394954481     A.U. after   14 cycles

 The electronic state is 1-A.
 Alpha  occ. eigenvalues --  -19.13207 -10.26611 -10.19558 -10.19411 -10.19389
 Alpha  occ. eigenvalues --  -10.19298 -10.19272 -10.18894 -10.18709 -10.18574
 Alpha  occ. eigenvalues --   -1.03146  -0.89430  -0.78011  -0.73880  -0.72832
 Alpha  occ. eigenvalues --   -0.66761  -0.62347  -0.55194  -0.55068  -0.52443
 Alpha  occ. eigenvalues --   -0.51318  -0.47366  -0.46241  -0.43329  -0.41433
 Alpha  occ. eigenvalues --   -0.39956  -0.39570  -0.38211  -0.37009  -0.35971
 Alpha  occ. eigenvalues --   -0.34882  -0.33880  -0.33317  -0.32171  -0.30737
 Alpha  occ. eigenvalues --   -0.29942  -0.22986
 Alpha virt. eigenvalues --   -0.00723   0.07381   0.10016   0.11748   0.12670
 Alpha virt. eigenvalues --    0.14138   0.14521   0.15121   0.16166   0.16531
 Alpha virt. eigenvalues --    0.17527   0.18048   0.18683   0.18759   0.20402

 Mulliken charges:
               1
     1  O   -0.457494
     2  C    0.449781
     3  C   -0.353829
     4  C   -0.121681
     5  C   -0.117948
     6  C   -0.168865
     7  C   -0.302498
     8  C   -0.094655
     9  C   -0.273365
    10  C   -0.273335
    11  H    0.167604
    12  H    0.169723
    13  H    0.125272
    14  H    0.129671
    15  H    0.137747
    16  H    0.150037
    17  H    0.155396
    18  H    0.122574
    19  H    0.136616
    20  H    0.136708
    21  H    0.141288
    22  H    0.141252
 Sum of Mulliken charges =  -0.00000

 Dipole moment (field-independent basis, Debye):
    X=              3.0791    Y=              0.9106    Z=             -0.0938  Tot=              3.2123
 Quadrupole moment (field-independent basis, Debye-Ang):
   XX=            -71.0053   YY=            -58.2271   ZZ=            -57.8165
   XY=             -3.1017   XZ=              0.1556   YZ=             -0.3254

  Exact polarizability:  97.847  -0.194  80.957  -0.089  -0.868  77.170
 Approx polarizability: 137.278   3.391 121.351  -0.206  -1.813 115.442

                      1                      2                      3
                      A                      A                      A
 Frequencies --    114.6835               214.8740               269.1712
 Red. masses --      4.9556                 1.9258                 2.6715
 Frc consts  --      0.0384                 0.0524                 0.1140
 IR Inten    --      4.3333                 0.1989                 0.4734

                      4                      5                      6
                      A                      A                      A
 Frequencies --    306.3773               394.2270               430.8019
 Red. masses --      2.1931                 2.1498                 4.5233
 Frc consts  --      0.1213                 0.1969                 0.4946
 IR Inten    --      0.6442                 0.8520                 2.0700

                      7                      8                      9
                      A                      A                      A
 Frequencies --    488.9829               590.7590               618.5332
 Red. masses --      4.2486                 2.3747                 4.4396
 Frc consts  --      0.5985                 0.4883                 1.0007
 IR Inten    --      6.0632                 1.1102                 1.4087

                     10                     11                     12
                      A                      A                      A
 Frequencies --    671.6134               723.8397               778.0405
 Red. masses --      3.8403                 2.8660                 3.1103
 Frc consts  --      1.0206                 0.8847                 1.1093
 IR Inten    --      1.4116                 0.6500                 5.6293

                     13                     14                     15
                      A                      A                      A
 Frequencies --    798.2187               809.9392               852.1230
 Red. masses --      2.9772                 1.7472                 2.8346
 Frc consts  --      1.1176                 0.6753                 1.2127
 IR Inten    --      4.5417                 0.8683                 1.1689

                     16                     17                     18
                      A                      A                      A
 Frequencies --    889.0404               900.1103               912.0772
 Red. masses --      2.3137                 2.9883                 2.9500
 Frc consts  --      1.0775                 1.4265                 1.4459
 IR Inten    --      0.6172                 0.7529                 3.1092

                     19                     20                     21
                      A                      A                      A
 Frequencies --    929.5591               948.5173               972.4193
 Red. masses --      1.8025                 2.0324                 1.8505
 Frc consts  --      0.9177                 1.0773                 1.0310
 IR Inten    --      2.6404                 1.1708                 0.4383

                     22                     23                     24
                      A                      A                      A
 Frequencies --    991.6800              1025.2289              1031.3152
 Red. masses --      2.0451                 1.8306                 2.2059
 Frc consts  --      1.1850                 1.1337                 1.3823
 IR Inten    --      1.7799                 2.4576                 6.4350

                     25                     26                     27
                      A                      A                      A
 Frequencies --   1049.6536              1072.0212              1115.5573
 Red. masses --      1.7383                 1.7916                 1.2981
 Frc consts  --      1.1284                 1.2131                 0.9518
 IR Inten    --      8.3043                 2.7223                 5.1957

                     28                     29                     30
                      A                      A                      A
 Frequencies --   1152.3318              1153.5736              1174.2933
 Red. masses --      1.2808                 1.2992                 1.5882
 Frc consts  --      1.0021                 1.0186                 1.2903
 IR Inten    --     11.8030                 3.8395                 5.6914

                     31                     32                     33
                      A                      A                      A
 Frequencies --   1197.9852              1216.1366              1233.5950
 Red. masses --      1.5467                 1.5586                 1.5138
 Frc consts  --      1.3079                 1.3582                 1.3573
 IR Inten    --     10.0362                 3.3128                 0.3495

                     34                     35                     36
                      A                      A                      A
 Frequencies --   1265.5357              1286.6901              1288.5504
 Red. masses --      1.4412                 1.5972                 1.4613
 Frc consts  --      1.3599                 1.5579                 1.4295
 IR Inten    --      0.6650                 0.9611                 1.4655

                     37                     38                     39
                      A                      A                      A
 Frequencies --   1296.5591              1315.0192              1329.5811
 Red. masses --      1.4729                 1.3830                 1.6613
 Frc consts  --      1.4589                 1.4091                 1.7303
 IR Inten    --      3.7575                 1.6541                 0.1104

                     40                     41                     42
                      A                      A                      A
 Frequencies --   1337.1969              1342.8419              1359.2120
 Red. masses --      1.5126                 1.5524                 1.5056
 Frc consts  --      1.5936                 1.6494                 1.6388
 IR Inten    --      2.0596                 2.1455                 1.0326

                     43                     44                     45
                      A                      A                      A
 Frequencies --   1389.2105              1483.3802              1520.1939
 Red. masses --      1.6139                 1.0909                 1.0808
 Frc consts  --      1.8351                 1.4143                 1.4716
 IR Inten    --      1.2368                 6.8564                 0.5611

                     46                     47                     48
                      A                      A                      A
 Frequencies --   1532.4146              1547.6272              1850.9776
 Red. masses --      1.0924                 1.0905                12.2611
 Frc consts  --      1.5114                 1.5389                24.7504
 IR Inten    --      3.0830                 3.2573               261.9295

                     49                     50                     51
                      A                      A                      A
 Frequencies --   3053.0007              3059.7182              3064.1013
 Red. masses --      1.0610                 1.0608                 1.0613
 Frc consts  --      5.8266                 5.8510                 5.8707
 IR Inten    --     27.5038                12.5397                50.5365

                     52                     53                     54
                      A                      A                      A
 Frequencies --   3064.7784              3086.0329              3091.7481
 Red. masses --      1.0616                 1.0944                 1.0960
 Frc consts  --      5.8748                 6.1409                 6.1727
 IR Inten    --     23.1346                21.5075                10.7243

                     55                     56                     57
                      A                      A                      A
 Frequencies --   3093.8858              3098.6120              3102.7812
 Red. masses --      1.0904                 1.1034                 1.0999
 Frc consts  --      6.1496                 6.2420                 6.2390
 IR Inten    --     22.1849                15.9692                31.8523

                     58                     59                     60
                      A                      A                      A
 Frequencies --   3105.9293              3110.3615              3140.0262
 Red. masses --      1.0952                 1.1027                 1.0894
 Frc consts  --      6.2248                 6.2854                 6.3287
 IR Inten    --     36.2516                65.9675                21.1436

 - Thermochemistry -
 -------------------
 Temperature   298.150 Kelvin.  Pressure   1.00000 Atm.
 Atom     1 has atomic number  8 and mass  15.99491

 Molecular mass:   136.08882 amu.
 Principal axes and moments of inertia in atomic units:
                           1         2         3
     Eigenvalues --   612.561631557.775141593.44625
           X            0.99981  -0.01953  -0.00083
           Y            0.01945   0.99823  -0.05617
           Z            0.00192   0.05614   0.99842
 This molecule is an asymmetric top.
 Rotational symmetry number  1.
 Warning -- assumption of classical behavior for rotation
           may cause significant error
 Rotational temperatures (Kelvin)      0.14140     0.05560     0.05436
 Rotational constants (GHZ):           2.94622     1.15854     1.13260
 Zero-point vibrational energy     509867.8 (Joules/Mol)
                                  121.86134 (Kcal/Mol)
 Warning -- explicit consideration of   9 degrees of freedom as
           vibrations may cause significant error
 Vibrational temperatures:    165.00   309.16   387.28   440.81   567.20
          (Kelvin)            619.83   703.54   849.97   889.93   966.30
                             1041.44  1119.43  1148.46  1165.32  1226.01
                             1279.13  1295.06  1312.28  1337.43  1364.70
                             1399.09  1426.81  1475.08  1483.83  1510.22
                             1542.40  1605.04  1657.95  1659.74  1689.55
                             1723.63  1749.75  1774.87  1820.82  1851.26
                             1853.94  1865.46  1892.02  1912.97  1923.93
                             1932.05  1955.60  1998.76  2134.25  2187.22
                             2204.80  2226.69  2663.14  4392.59  4402.25
                             4408.56  4409.53  4440.11  4448.34  4451.41
                             4458.21  4464.21  4468.74  4475.12  4517.80

 Zero-point correction=                           0.194198 (Hartree/Particle)
 Thermal correction to Energy=                    0.201534
 Thermal correction to Enthalpy=                  0.202479
 Thermal correction to Gibbs Free Energy=         0.162450
 Sum of electronic and zero-point Energies=           -425.200756
 Sum of electronic and thermal Energies=              -425.193420
 Sum of electronic and thermal Enthalpies=            -425.192476
 Sum of electronic and thermal Free Energies=         -425.232504

                     E (Thermal)             CV                S
                      KCal/Mol        Cal/Mol-Kelvin    Cal/Mol-Kelvin
 Total                  126.465             31.284             84.247
 Electronic               0.000              0.000              0.000
 Translational            0.889              2.981             40.637
 Rotational               0.889              2.981             28.810
 Vibrational            124.687             25.322             14.800
 Vibration     1          0.608              1.937              3.188
 Vibration     2          0.645              1.818              2.002
 Vibration     3          0.674              1.730              1.602
 Vibration     4          0.697              1.662              1.382
 Vibration     5          0.761              1.483              0.984
 Vibration     6          0.792              1.403              0.856
 Vibration     7          0.845              1.274              0.686
 Vibration     8          0.948              1.051              0.466
 Vibration     9          0.978              0.993              0.419

 Normal termination of Gaussian 16 at Wed Feb 21 19:11:35 2024.
