 Gaussian 16, Revision A.03,
 Gaussian 16:  EM64M-G16RevA.03 25-Dec-2016

 ---------------------
 # freq b3lyp/6-31g(d)
 ---------------------

 ---------
 good luck
 ---------
 Symbolic Z-matrix:
 Charge =  0 Multiplicity = 1

                         Standard orientation:
 ---------------------------------------------------------------------
 Center     Atomic      Atomic             Coordinates (Angstroms)
 Number     Number       Type             X           Y           Z
 ---------------------------------------------------------------------
      1          8           0        2.803145   -1.673031   -0.376017
      2          6           0        2.103047   -0.775006    0.053287
      3          6           0        0.625405   -0.980770    0.366894
      4          6           0       -0.277909    0.097033   -0.290237
      5          6           0       -1.809834   -0.121893   -0.029806
      6          6           0       -2.623814    0.902532   -0.850890
      7          6           0       -2.224781   -1.531739   -0.504325
      8          6           0       -2.179577    0.030076    1.459740
      9          6           0        0.248727    1.496642    0.094184
     10          6           0        1.715534    1.689887   -0.319890
     11          6           0        2.635327    0.626425    0.309918
     12          1           0        0.510624   -0.932729    1.460543
     13          1           0        0.365217   -1.992480    0.048940
     14          1           0       -0.147407   -0.004092   -1.380051
     15          1           0       -2.363050    0.856113   -1.915763
     16          1           0       -3.696420    0.692830   -0.763222
     17          1           0       -2.466481    1.930851   -0.509564
     18          1           0       -3.313935   -1.644940   -0.449495
     19          1           0       -1.785316   -2.324076    0.110055
     20          1           0       -1.924601   -1.706650   -1.545173
     21          1           0       -1.960317    1.035179    1.836911
     22          1           0       -1.648709   -0.691630    2.091148
     23          1           0       -3.252976   -0.144309    1.601068
     24          1           0        0.160888    1.642162    1.180382
     25          1           0       -0.357682    2.277671   -0.375958
     26          1           0        2.060251    2.691366   -0.035501
     27          1           0        1.794810    1.631726   -1.414314
     28          1           0        2.666102    0.779774    1.399822
     29          1           0        3.661089    0.688354   -0.064949
 ---------------------------------------------------------------------

 SCF Done:  E(RB3LYP) =  -467.140857634     A.U. after   14 cycles

 The electronic state is 1-A.
 Alpha  occ. eigenvalues --  -19.13032 -10.26654 -10.20263 -10.19761 -10.19332
 Alpha  occ. eigenvalues --  -10.18878 -10.18730 -10.18594 -10.17626 -10.17550
 Alpha  occ. eigenvalues --  -10.17409  -1.02913  -0.84410  -0.80325  -0.74326
 Alpha  occ. eigenvalues --   -0.72287  -0.68718  -0.68319  -0.62886  -0.59617
 Alpha  occ. eigenvalues --   -0.53444  -0.52565  -0.47817  -0.46395  -0.45248
 Alpha  occ. eigenvalues --   -0.44183  -0.43881  -0.42889  -0.42284  -0.41158
 Alpha  occ. eigenvalues --   -0.39517  -0.38466  -0.37677  -0.36987  -0.35903
 Alpha  occ. eigenvalues --   -0.35152  -0.34932  -0.34238  -0.33234  -0.31645
 Alpha  occ. eigenvalues --   -0.30971  -0.30571  -0.23274
 Alpha virt. eigenvalues --   -0.00977   0.07318   0.10074   0.10189   0.12222
 Alpha virt. eigenvalues --    0.12622   0.12794   0.13997   0.14642   0.15396
 Alpha virt. eigenvalues --    0.15773   0.16356   0.17072   0.17692   0.18610

 Mulliken charges:
               1
     1  O   -0.447692
     2  C    0.447451
     3  C   -0.362500
     4  C   -0.079584
     5  C    0.104290
     6  C   -0.452671
     7  C   -0.453487
     8  C   -0.457057
     9  C   -0.279532
    10  C   -0.275716
    11  C   -0.339680
    12  H    0.150646
    13  H    0.165952
    14  H    0.122724
    15  H    0.139661
    16  H    0.140886
    17  H    0.143449
    18  H    0.139734
    19  H    0.147202
    20  H    0.141844
    21  H    0.143063
    22  H    0.142462
    23  H    0.142468
    24  H    0.133150
    25  H    0.142421
    26  H    0.141966
    27  H    0.144424
    28  H    0.152054
    29  H    0.162076
 Sum of Mulliken charges =  -0.00000

 Dipole moment (field-independent basis, Debye):
    X=             -2.0054    Y=              2.2666    Z=              0.8795  Tot=              3.1516
 Quadrupole moment (field-independent basis, Debye-Ang):
   XX=            -76.2274   YY=            -73.2714   ZZ=            -68.7407
   XY=              7.7450   XZ=              2.5577   YZ=             -1.4707

  Exact polarizability: 119.254  -0.220 102.880  -1.163   1.654  89.509
 Approx polarizability: 150.648  -7.477 149.277  -4.952   6.113 138.891

                      1                      2                      3
                      A                      A                      A
 Frequencies --     38.2763                85.1506                98.8740
 Red. masses --      2.7865                 3.6656                 2.7713
 Frc consts  --      0.0024                 0.0157                 0.0160
 IR Inten    --      0.7107                 2.1640                 1.1082

                      4                      5                      6
                      A                      A                      A
 Frequencies --    179.9063               225.7109               243.5964
 Red. masses --      2.4063                 1.5671                 1.3714
 Frc consts  --      0.0459                 0.0470                 0.0479
 IR Inten    --      0.5956                 0.4783                 0.0300

                      7                      8                      9
                      A                      A                      A
 Frequencies --    260.8189               270.1676               280.7457
 Red. masses --      1.2096                 1.1849                 2.7290
 Frc consts  --      0.0485                 0.0510                 0.1267
 IR Inten    --      0.1238                 0.1325                 0.0995

                     10                     11                     12
                      A                      A                      A
 Frequencies --    326.6629               339.5398               377.1445
 Red. masses --      2.1824                 2.1086                 2.3703
 Frc consts  --      0.1372                 0.1432                 0.1986
 IR Inten    --      0.0763                 0.4079                 0.4028

                     13                     14                     15
                      A                      A                      A
 Frequencies --    407.6433               437.7622               449.0049
 Red. masses --      2.4201                 2.7208                 2.6436
 Frc consts  --      0.2369                 0.3072                 0.3140
 IR Inten    --      0.7824                 1.3788                 0.8916

                     16                     17                     18
                      A                      A                      A
 Frequencies --    476.8671               511.1804               539.5379
 Red. masses --      1.7945                 3.0479                 2.5802
 Frc consts  --      0.2404                 0.4692                 0.4425
 IR Inten    --      0.3667                 6.8452                 6.3050

                     19                     20                     21
                      A                      A                      A
 Frequencies --    642.2862               755.2194               772.9177
 Red. masses --      3.6952                 2.2986                 2.8090
 Frc consts  --      0.8981                 0.7724                 0.9887
 IR Inten    --      2.2151                 1.8320                 2.2804

                     22                     23                     24
                      A                      A                      A
 Frequencies --    837.8369               874.5742               882.0171
 Red. masses --      2.4437                 1.7135                 1.6959
 Frc consts  --      1.0107                 0.7722                 0.7773
 IR Inten    --      1.1065                 0.9050                 2.1639

                     25                     26                     27
                      A                      A                      A
 Frequencies --    905.4047               937.3868               942.0655
 Red. masses --      2.3365                 1.9650                 1.7528
 Frc consts  --      1.1285                 1.0173                 0.9165
 IR Inten    --      3.9902                 0.9436                 0.4864

                     28                     29                     30
                      A                      A                      A
 Frequencies --    946.1208               970.4652              1005.1054
 Red. masses --      1.9292                 1.2003                 2.0595
 Frc consts  --      1.0175                 0.6660                 1.2259
 IR Inten    --      2.3800                 0.0171                 0.9158

                     31                     32                     33
                      A                      A                      A
 Frequencies --   1033.2736              1050.0762              1065.0243
 Red. masses --      1.6358                 1.5913                 1.6086
 Frc consts  --      1.0290                 1.0338                 1.0750
 IR Inten    --      3.5007                 1.5323                 1.7313

                     34                     35                     36
                      A                      A                      A
 Frequencies --   1081.7893              1101.3998              1133.4994
 Red. masses --      1.1822                 2.4325                 2.0987
 Frc consts  --      0.8151                 1.7386                 1.5887
 IR Inten    --     10.1253                 3.1519                 1.3246

                     37                     38                     39
                      A                      A                      A
 Frequencies --   1201.1863              1221.0156              1253.2632
 Red. masses --      1.7006                 1.8729                 1.7401
 Frc consts  --      1.4457                 1.6451                 1.6103
 IR Inten    --     16.8776                 4.2748                32.4768

                     40                     41                     42
                      A                      A                      A
 Frequencies --   1261.2817              1268.6631              1272.7053
 Red. masses --      1.9981                 1.7248                 2.2177
 Frc consts  --      1.8728                 1.6356                 2.1164
 IR Inten    --      1.5751                19.5425                 8.2261

                     43                     44                     45
                      A                      A                      A
 Frequencies --   1304.3273              1321.1504              1353.3810
 Red. masses --      1.4143                 1.4637                 1.4261
 Frc consts  --      1.4176                 1.5053                 1.5390
 IR Inten    --      6.4142                 8.3960                 2.7552

                     46                     47                     48
                      A                      A                      A
 Frequencies --   1363.7492              1380.1273              1395.1496
 Red. masses --      1.3377                 1.3228                 1.4658
 Frc consts  --      1.4658                 1.4845                 1.6810
 IR Inten    --      5.4639                 6.0113                11.8607

                     49                     50                     51
                      A                      A                      A
 Frequencies --   1407.7006              1430.0112              1431.4115
 Red. masses --      1.4768                 1.2279                 1.2332
 Frc consts  --      1.7243                 1.4794                 1.4887
 IR Inten    --      2.1932                 5.0365                 8.2293

                     52                     53                     54
                      A                      A                      A
 Frequencies --   1461.7563              1492.1799              1499.2593
 Red. masses --      1.2228                 1.0968                 1.0881
 Frc consts  --      1.5395                 1.4388                 1.4411
 IR Inten    --      7.0420                 4.7338                 4.5320

                     55                     56                     57
                      A                      A                      A
 Frequencies --   1513.6362              1517.9610              1519.1545
 Red. masses --      1.0496                 1.0447                 1.0742
 Frc consts  --      1.4168                 1.4183                 1.4607
 IR Inten    --      0.2452                 0.9054                 4.2156

                     58                     59                     60
                      A                      A                      A
 Frequencies --   1523.2455              1529.1155              1539.8746
 Red. masses --      1.0571                 1.0945                 1.0493
 Frc consts  --      1.4451                 1.5078                 1.4660
 IR Inten    --      1.1217                 1.8231                 4.7020

                     61                     62                     63
                      A                      A                      A
 Frequencies --   1541.6725              1551.2001              1815.5610
 Red. masses --      1.0588                 1.0555                10.9077
 Frc consts  --      1.4827                 1.4964                21.1838
 IR Inten    --      2.7838                14.1864               201.9384

                     64                     65                     66
                      A                      A                      A
 Frequencies --   2991.1067              3019.9539              3028.3371
 Red. masses --      1.0819                 1.0695                 1.0686
 Frc consts  --      5.7031                 5.7470                 5.7737
 IR Inten    --     13.5281                 3.3976                 7.7708

                     67                     68                     69
                      A                      A                      A
 Frequencies --   3032.7863              3039.8605              3040.5103
 Red. masses --      1.0682                 1.0513                 1.0438
 Frc consts  --      5.7886                 5.7237                 5.6854
 IR Inten    --      7.1162                43.7878                 9.1393

                     70                     71                     72
                      A                      A                      A
 Frequencies --   3043.4760              3050.8656              3082.2218
 Red. masses --      1.0386                 1.0386                 1.1001
 Frc consts  --      5.6679                 5.6957                 6.1578
 IR Inten    --     55.2224                16.2355                41.9324

                     73                     74                     75
                      A                      A                      A
 Frequencies --   3097.3016              3101.3522              3105.2456
 Red. masses --      1.0969                 1.1022                 1.1016
 Frc consts  --      6.1997                 6.2460                 6.2583
 IR Inten    --     30.8993                 0.7606                20.4287

                     76                     77                     78
                      A                      A                      A
 Frequencies --   3109.8003              3115.6583              3118.5346
 Red. masses --      1.1005                 1.1018                 1.0953
 Frc consts  --      6.2708                 6.3014                 6.2759
 IR Inten    --     79.5688                14.0369                28.0287

                     79                     80                     81
                      A                      A                      A
 Frequencies --   3119.4985              3121.9363              3139.2966
 Red. masses --      1.0998                 1.0988                 1.0927
 Frc consts  --      6.3057                 6.3100                 6.3445
 IR Inten    --     40.3889                51.4812                16.9285

 - Thermochemistry -
 -------------------
 Temperature   298.150 Kelvin.  Pressure   1.00000 Atm.
 Atom     1 has atomic number  8 and mass  15.99491

 Molecular mass:   154.13577 amu.
 Principal axes and moments of inertia in atomic units:
                           1         2         3
     Eigenvalues --  1001.510662511.014822999.23724
           X            0.99944   0.03307   0.00451
           Y           -0.03302   0.99940  -0.01035
           Z           -0.00485   0.01019   0.99994
 This molecule is an asymmetric top.
 Rotational symmetry number  1.
 Warning -- assumption of classical behavior for rotation
           may cause significant error
 Rotational temperatures (Kelvin)      0.08648     0.03449     0.02888
 Rotational constants (GHZ):           1.80202     0.71873     0.60173
 Zero-point vibrational energy     695105.3 (Joules/Mol)
                                  166.13416 (Kcal/Mol)
 Warning -- explicit consideration of  18 degrees of freedom as
           vibrations may cause significant error
 Vibrational temperatures:     55.07   122.51   142.26   258.85   324.75
          (Kelvin)            350.48   375.26   388.71   403.93   470.00
                              488.52   542.63   586.51   629.84   646.02
                              686.11   735.47   776.27   924.11  1086.59
                             1112.06  1205.46  1258.32  1269.03  1302.68
                             1348.69  1355.42  1361.26  1396.28  1446.12
                             1486.65  1510.83  1532.33  1556.45  1584.67
                             1630.85  1728.24  1756.77  1803.17  1814.70
                             1825.32  1831.14  1876.64  1900.84  1947.21
                             1962.13  1985.70  2007.31  2025.37  2057.47
                             2059.48  2103.14  2146.91  2157.10  2177.78
                             2184.01  2185.72  2191.61  2200.06  2215.54
                             2218.12  2231.83  2612.19  4303.54  4345.04
                             4357.10  4363.50  4373.68  4374.62  4378.88
                             4389.52  4434.63  4456.33  4462.15  4467.76
                             4474.31  4482.74  4486.88  4488.26  4491.77
                             4516.75

 Zero-point correction=                           0.264752 (Hartree/Particle)
 Thermal correction to Energy=                    0.276664
 Thermal correction to Enthalpy=                  0.277608
 Thermal correction to Gibbs Free Energy=         0.227349
 Sum of electronic and zero-point Energies=           -466.876106
 Sum of electronic and thermal Energies=              -466.864194
 Sum of electronic and thermal Enthalpies=            -466.863250
 Sum of electronic and thermal Free Energies=         -466.913509

                     E (Thermal)             CV                S
                      KCal/Mol        Cal/Mol-Kelvin    Cal/Mol-Kelvin
 Total                  173.609             46.453            105.780
 Electronic               0.000              0.000              0.000
 Translational            0.889              2.981             41.008
 Rotational               0.889              2.981             30.401
 Vibrational            171.832             40.492             34.371
 Vibration     1          0.594              1.982              5.346
 Vibration     2          0.601              1.959              3.769
 Vibration     3          0.604              1.950              3.476
 Vibration     4          0.629              1.867              2.329
 Vibration     5          0.650              1.802              1.913
 Vibration     6          0.659              1.773              1.776
 Vibration     7          0.669              1.744              1.656
 Vibration     8          0.674              1.728              1.595
 Vibration     9          0.680              1.709              1.529
 Vibration    10          0.710              1.622              1.277
 Vibration    11          0.719              1.596              1.214
 Vibration    12          0.748              1.519              1.051
 Vibration    13          0.772              1.454              0.935
 Vibration    14          0.798              1.388              0.834
 Vibration    15          0.808              1.363              0.799
 Vibration    16          0.833              1.301              0.719
 Vibration    17          0.866              1.225              0.631
 Vibration    18          0.895              1.163              0.566

 Normal termination of Gaussian 16 at Thu Feb 22 10:49:18 2024.
