 Gaussian 16, Revision A.03,
 Gaussian 16:  EM64M-G16RevA.03 25-Dec-2016

 ---------------------
 # freq b3lyp/6-31g(d)
 ---------------------

 ---------
 good luck
 ---------
 Symbolic Z-matrix:
 Charge =  0 Multiplicity = 1

                         Standard orientation:
 ---------------------------------------------------------------------
 Center     Atomic      Atomic             Coordinates (Angstroms)
 Number     Number       Type             X           Y           Z
 ---------------------------------------------------------------------
      1          8           0       -4.144132    0.018941    0.775263
      2          6           0       -3.129753   -0.034946    0.112357
      3          6           0       -2.453540    1.193596   -0.464009
      4         16           0       -0.843014    1.533317    0.374517
      5          6           0       -0.056516   -0.165241    0.404804
      6          6           0        1.441535   -0.061583    0.227439
      7          6           0        2.289150   -0.592515    1.207487
      8          6           0        3.674966   -0.532775    1.055871
      9          6           0        4.228078    0.055911   -0.081592
     10          6           0        3.389309    0.587763   -1.064110
     11          6           0        2.005326    0.533956   -0.909931
     12         16           0       -0.768678   -1.313183   -0.848435
     13          6           0       -2.471423   -1.390212   -0.172419
     14          1           0       -2.282711    1.076122   -1.538037
     15          1           0       -3.078007    2.069490   -0.276754
     16          1           0       -0.270860   -0.598237    1.384976
     17          1           0        1.861522   -1.055385    2.093682
     18          1           0        4.319920   -0.945176    1.826918
     19          1           0        5.306990    0.103907   -0.201302
     20          1           0        3.814022    1.050506   -1.950729
     21          1           0        1.355002    0.962354   -1.666793
     22          1           0       -2.512029   -1.993800    0.740597
     23          1           0       -3.076509   -1.907184   -0.927362
 ---------------------------------------------------------------------

 SCF Done:  E(RB3LYP) =  -1258.67397343     A.U. after   15 cycles

 The electronic state is 1-A.
 Alpha  occ. eigenvalues --  -88.89263 -88.88812 -19.15514 -10.29665 -10.26309
 Alpha  occ. eigenvalues --  -10.23532 -10.23000 -10.21332 -10.20117 -10.19888
 Alpha  occ. eigenvalues --  -10.19836 -10.19815 -10.19759  -7.95364  -7.94875
 Alpha  occ. eigenvalues --   -5.91886  -5.91528  -5.91416  -5.91048  -5.90791
 Alpha  occ. eigenvalues --   -5.90276  -1.05635  -0.87370  -0.84291  -0.78405
 Alpha  occ. eigenvalues --   -0.77815  -0.75293  -0.72470  -0.65831  -0.63383
 Alpha  occ. eigenvalues --   -0.61383  -0.58312  -0.54213  -0.51726  -0.48929
 Alpha  occ. eigenvalues --   -0.47934  -0.47504  -0.45793  -0.45591  -0.42938
 Alpha  occ. eigenvalues --   -0.42780  -0.42165  -0.40609  -0.39418  -0.38073
 Alpha  occ. eigenvalues --   -0.36415  -0.36080  -0.34938  -0.34746  -0.32719
 Alpha  occ. eigenvalues --   -0.27147  -0.25988  -0.25621  -0.23954  -0.22912
 Alpha virt. eigenvalues --   -0.04118  -0.02346  -0.01017   0.00021   0.04423
 Alpha virt. eigenvalues --    0.06011   0.08210   0.08647   0.09755   0.11846
 Alpha virt. eigenvalues --    0.12332   0.13227   0.14955   0.15188   0.16130

 Mulliken charges:
               1
     1  O   -0.419536
     2  C    0.466524
     3  C   -0.512440
     4  S    0.145191
     5  C   -0.496460
     6  C    0.151247
     7  C   -0.168263
     8  C   -0.127049
     9  C   -0.123917
    10  C   -0.132950
    11  C   -0.146726
    12  S    0.146226
    13  C   -0.514982
    14  H    0.208535
    15  H    0.207175
    16  H    0.203711
    17  H    0.133908
    18  H    0.136033
    19  H    0.135582
    20  H    0.137060
    21  H    0.154031
    22  H    0.206954
    23  H    0.210146
 Sum of Mulliken charges =  -0.00000

 Dipole moment (field-independent basis, Debye):
    X=              1.7379    Y=             -0.8297    Z=             -0.9535  Tot=              2.1490
 Quadrupole moment (field-independent basis, Debye-Ang):
   XX=            -89.9323   YY=            -91.2326   ZZ=            -87.6319
   XY=              1.7468   XZ=              7.3858   YZ=             -5.2722

  Exact polarizability: 194.096   0.040 103.636  -0.808 -11.230 109.175
 Approx polarizability: 277.390   0.206 166.344  -4.974 -23.777 195.188

                      1                      2                      3
                      A                      A                      A
 Frequencies --     18.7137                38.3913                78.5947
 Red. masses --      8.5243                 4.3889                 6.4378
 Frc consts  --      0.0018                 0.0038                 0.0234
 IR Inten    --      1.3508                 0.0608                 0.1097

                      4                      5                      6
                      A                      A                      A
 Frequencies --     95.5326               154.7347               197.2627
 Red. masses --      3.9936                 4.3002                 4.4547
 Frc consts  --      0.0215                 0.0607                 0.1021
 IR Inten    --      5.2767                 3.1383                 1.0961

                      7                      8                      9
                      A                      A                      A
 Frequencies --    246.1701               257.1622               309.7409
 Red. masses --      6.6088                 5.4639                 4.2781
 Frc consts  --      0.2360                 0.2129                 0.2418
 IR Inten    --      0.7519                 0.1957                 2.3930

                     10                     11                     12
                      A                      A                      A
 Frequencies --    361.0972               416.4076               421.5727
 Red. masses --     10.2815                 2.9655                 5.1097
 Frc consts  --      0.7899                 0.3030                 0.5350
 IR Inten    --      0.8116                 0.0718                 1.9316

                     13                     14                     15
                      A                      A                      A
 Frequencies --    463.4988               508.1108               536.4591
 Red. masses --      3.3856                 3.7857                 4.2073
 Frc consts  --      0.4285                 0.5759                 0.7134
 IR Inten    --     12.7824                 0.6830                 0.1121

                     16                     17                     18
                      A                      A                      A
 Frequencies --    600.9549               629.1688               684.8066
 Red. masses --      5.9201                 6.3566                 4.2711
 Frc consts  --      1.2597                 1.4825                 1.1801
 IR Inten    --      6.4003                 0.2107                10.8966

                     19                     20                     21
                      A                      A                      A
 Frequencies --    707.3955               709.6369               730.5609
 Red. masses --      4.1014                 2.3979                 2.2495
 Frc consts  --      1.2092                 0.7115                 0.7074
 IR Inten    --      6.4694                13.7430                53.4325

                     22                     23                     24
                      A                      A                      A
 Frequencies --    757.5678               806.2587               814.1106
 Red. masses --      4.9480                 2.6851                 3.3921
 Frc consts  --      1.6731                 1.0284                 1.3246
 IR Inten    --      8.8921                 0.8840                 1.3968

                     25                     26                     27
                      A                      A                      A
 Frequencies --    833.3520               856.8932               887.1733
 Red. masses --      3.6435                 1.2498                 2.4883
 Frc consts  --      1.4908                 0.5407                 1.1539
 IR Inten    --      0.8539                 0.0072                 2.5231

                     28                     29                     30
                      A                      A                      A
 Frequencies --    929.3343               940.2875               969.7270
 Red. masses --      1.5464                 1.7719                 1.3552
 Frc consts  --      0.7869                 0.9230                 0.7508
 IR Inten    --      0.8418                 2.3629                 0.0057

                     31                     32                     33
                      A                      A                      A
 Frequencies --    999.0068              1017.7171              1058.8206
 Red. masses --      1.2623                 6.1982                 2.2318
 Frc consts  --      0.7422                 3.7824                 1.4742
 IR Inten    --      0.0145                 1.5257                 2.6688

                     34                     35                     36
                      A                      A                      A
 Frequencies --   1110.5189              1114.3301              1186.7945
 Red. masses --      1.4079                 1.5478                 1.2497
 Frc consts  --      1.0230                 1.1324                 1.0371
 IR Inten    --     16.5365                10.4451                 4.6413

                     37                     38                     39
                      A                      A                      A
 Frequencies --   1194.4707              1214.1731              1218.7554
 Red. masses --      1.1036                 1.3015                 1.8331
 Frc consts  --      0.9277                 1.1305                 1.6042
 IR Inten    --      0.0150                 1.8604                 0.2205

                     40                     41                     42
                      A                      A                      A
 Frequencies --   1224.4090              1245.9817              1266.5176
 Red. masses --      1.2345                 1.5108                 1.5544
 Frc consts  --      1.0904                 1.3819                 1.4691
 IR Inten    --      1.5448                56.6941                22.4769

                     43                     44                     45
                      A                      A                      A
 Frequencies --   1272.1441              1280.1726              1365.4475
 Red. masses --      1.4456                 1.4515                 3.6423
 Frc consts  --      1.3783                 1.4016                 4.0011
 IR Inten    --      4.6124                20.5181                 1.9413

                     46                     47                     48
                      A                      A                      A
 Frequencies --   1375.5495              1456.3033              1479.0909
 Red. masses --      1.3410                 1.0768                 1.1083
 Frc consts  --      1.4950                 1.3456                 1.4286
 IR Inten    --      3.1178                10.8874                12.9727

                     49                     50                     51
                      A                      A                      A
 Frequencies --   1501.7188              1543.6811              1644.1007
 Red. masses --      2.1861                 2.1824                 5.4477
 Frc consts  --      2.9046                 3.0641                 8.6759
 IR Inten    --      9.5040                 8.6556                 0.9094

                     52                     53                     54
                      A                      A                      A
 Frequencies --   1661.4791              1817.5118              3066.2238
 Red. masses --      5.5165                11.7109                 1.0589
 Frc consts  --      8.9723                22.7927                 5.8656
 IR Inten    --      0.7861               219.1768                 9.5717

                     55                     56                     57
                      A                      A                      A
 Frequencies --   3087.7877              3091.6521              3115.5226
 Red. masses --      1.0594                 1.0867                 1.1049
 Frc consts  --      5.9515                 6.1197                 6.3188
 IR Inten    --      6.2700                 7.1117                 2.2617

                     58                     59                     60
                      A                      A                      A
 Frequencies --   3161.0926              3180.8014              3188.4553
 Red. masses --      1.1059                 1.0863                 1.0874
 Frc consts  --      6.5106                 6.4754                 6.5136
 IR Inten    --      0.5464                 4.4819                 0.7084

                     61                     62                     63
                      A                      A                      A
 Frequencies --   3198.2960              3207.7714              3214.6865
 Red. masses --      1.0911                 1.0941                 1.0971
 Frc consts  --      6.5756                 6.6331                 6.6798
 IR Inten    --     21.6562                27.7718                10.6450

 - Thermochemistry -
 -------------------
 Temperature   298.150 Kelvin.  Pressure   1.00000 Atm.
 Atom     1 has atomic number  8 and mass  15.99491

 Molecular mass:   210.01731 amu.
 Principal axes and moments of inertia in atomic units:
                           1         2         3
     Eigenvalues --  1147.396535157.011135473.67932
           X            0.99999   0.00236   0.00468
           Y           -0.00180   0.99323  -0.11619
           Z           -0.00492   0.11618   0.99322
 This molecule is an asymmetric top.
 Rotational symmetry number  1.
 Warning -- assumption of classical behavior for rotation
           may cause significant error
 Rotational temperatures (Kelvin)      0.07549     0.01680     0.01582
 Rotational constants (GHZ):           1.57290     0.34996     0.32971
 Zero-point vibrational energy     464878.8 (Joules/Mol)
                                  111.10869 (Kcal/Mol)
 Warning -- explicit consideration of  16 degrees of freedom as
           vibrations may cause significant error
 Vibrational temperatures:     26.92    55.24   113.08   137.45   222.63
          (Kelvin)            283.82   354.18   370.00   445.65   519.54
                              599.12   606.55   666.87   731.06   771.85
                              864.64   905.23   985.28  1017.78  1021.01
                             1051.11  1089.97  1160.03  1171.32  1199.01
                             1232.88  1276.44  1337.10  1352.86  1395.22
                             1437.35  1464.27  1523.41  1597.79  1603.27
                             1707.53  1718.58  1746.92  1753.52  1761.65
                             1792.69  1822.24  1830.33  1841.88  1964.57
                             1979.11  2095.30  2128.08  2160.64  2221.01
                             2365.49  2390.50  2614.99  4411.61  4442.64
                             4448.20  4482.54  4548.11  4576.46  4587.48
                             4601.63  4615.27  4625.22

 Zero-point correction=                           0.177063 (Hartree/Particle)
 Thermal correction to Energy=                    0.188990
 Thermal correction to Enthalpy=                  0.189934
 Thermal correction to Gibbs Free Energy=         0.136655
 Sum of electronic and zero-point Energies=          -1258.496910
 Sum of electronic and thermal Energies=             -1258.484984
 Sum of electronic and thermal Enthalpies=           -1258.484040
 Sum of electronic and thermal Free Energies=        -1258.537318

                     E (Thermal)             CV                S
                      KCal/Mol        Cal/Mol-Kelvin    Cal/Mol-Kelvin
 Total                  118.593             45.056            112.134
 Electronic               0.000              0.000              0.000
 Translational            0.889              2.981             41.930
 Rotational               0.889              2.981             31.849
 Vibrational            116.815             39.095             38.355
 Vibration     1          0.593              1.986              6.766
 Vibration     2          0.594              1.982              5.340
 Vibration     3          0.600              1.964              3.926
 Vibration     4          0.603              1.952              3.543
 Vibration     5          0.620              1.897              2.613
 Vibration     6          0.637              1.844              2.158
 Vibration     7          0.661              1.769              1.758
 Vibration     8          0.667              1.751              1.681
 Vibration     9          0.699              1.655              1.364
 Vibration    10          0.735              1.552              1.117
 Vibration    11          0.780              1.435              0.904
 Vibration    12          0.784              1.423              0.887
 Vibration    13          0.821              1.331              0.756
 Vibration    14          0.863              1.232              0.638
 Vibration    15          0.891              1.169              0.573
 Vibration    16          0.959              1.030              0.448

 Normal termination of Gaussian 16 at Sat Feb 24 00:19:55 2024.
