 Gaussian 16, Revision A.03,
 Gaussian 16:  EM64M-G16RevA.03 25-Dec-2016

 ---------------------
 # freq b3lyp/6-31g(d)
 ---------------------

 ---------
 good luck
 ---------
 Symbolic Z-matrix:
 Charge =  0 Multiplicity = 1

                         Standard orientation:
 ---------------------------------------------------------------------
 Center     Atomic      Atomic             Coordinates (Angstroms)
 Number     Number       Type             X           Y           Z
 ---------------------------------------------------------------------
      1          8           0       -4.069551   -0.000036    0.825258
      2          6           0       -3.132691   -0.000006    0.053447
      3          6           0       -2.520788   -1.293176   -0.467711
      4         16           0       -0.790313   -1.546859    0.116690
      5          6           0       -0.023110    0.000024   -0.544457
      6          6           0        1.453965    0.000016   -0.221405
      7          6           0        1.902800   -0.000064    1.107486
      8          6           0        3.268737   -0.000079    1.388234
      9          6           0        4.200466   -0.000017    0.348364
     10          6           0        3.760479    0.000058   -0.976224
     11          6           0        2.394656    0.000073   -1.258761
     12         16           0       -0.790322    1.546859    0.116796
     13          6           0       -2.520797    1.293203   -0.467621
     14          1           0       -3.099832   -2.136605   -0.085657
     15          1           0       -2.539326   -1.311050   -1.565150
     16          1           0       -0.160737    0.000060   -1.630319
     17          1           0        1.179364   -0.000116    1.917685
     18          1           0        3.604729   -0.000139    2.421442
     19          1           0        5.264327   -0.000029    0.569336
     20          1           0        4.479412    0.000104   -1.790896
     21          1           0        2.055511    0.000129   -2.291829
     22          1           0       -3.099845    2.136603   -0.085508
     23          1           0       -2.539335    1.311154   -1.565059
 ---------------------------------------------------------------------

 SCF Done:  E(RB3LYP) =  -1258.67581426     A.U. after   15 cycles

 The electronic state is 1-A.
 Alpha  occ. eigenvalues --  -88.89063 -88.89062 -19.15409 -10.29369 -10.26414
 Alpha  occ. eigenvalues --  -10.23259 -10.23258 -10.21571 -10.20266 -10.19996
 Alpha  occ. eigenvalues --  -10.19942 -10.19915 -10.19847  -7.95133  -7.95133
 Alpha  occ. eigenvalues --   -5.91668  -5.91666  -5.91307  -5.91305  -5.90541
 Alpha  occ. eigenvalues --   -5.90540  -1.05374  -0.87538  -0.84274  -0.78536
 Alpha  occ. eigenvalues --   -0.77986  -0.75414  -0.72661  -0.65410  -0.63552
 Alpha  occ. eigenvalues --   -0.61547  -0.58324  -0.54580  -0.52206  -0.48216
 Alpha  occ. eigenvalues --   -0.47792  -0.47502  -0.45768  -0.44273  -0.44047
 Alpha  occ. eigenvalues --   -0.43307  -0.42754  -0.40181  -0.39982  -0.38726
 Alpha  occ. eigenvalues --   -0.36527  -0.35819  -0.35059  -0.33724  -0.32806
 Alpha  occ. eigenvalues --   -0.27736  -0.25897  -0.25498  -0.24749  -0.22103
 Alpha virt. eigenvalues --   -0.04756  -0.02186  -0.01231   0.01643   0.04756
 Alpha virt. eigenvalues --    0.05552   0.07903   0.08470   0.09298   0.10951
 Alpha virt. eigenvalues --    0.13438   0.14018   0.14091   0.14998   0.15829

 Mulliken charges:
               1
     1  O   -0.414628
     2  C    0.480064
     3  C   -0.512865
     4  S    0.159383
     5  C   -0.481596
     6  C    0.139943
     7  C   -0.153691
     8  C   -0.132578
     9  C   -0.123395
    10  C   -0.127800
    11  C   -0.164763
    12  S    0.159383
    13  C   -0.512865
    14  H    0.209396
    15  H    0.182976
    16  H    0.191240
    17  H    0.165291
    18  H    0.139376
    19  H    0.136309
    20  H    0.136182
    21  H    0.132267
    22  H    0.209396
    23  H    0.182975
 Sum of Mulliken charges =  -0.00000

 Dipole moment (field-independent basis, Debye):
    X=              1.7669    Y=              0.0001    Z=             -2.8481  Tot=              3.3517
 Quadrupole moment (field-independent basis, Debye-Ang):
   XX=            -88.3502   YY=            -93.7978   ZZ=            -85.2440
   XY=             -0.0003   XZ=              8.9167   YZ=             -0.0005

  Exact polarizability: 194.571   0.000  96.766  -0.683  -0.002 116.186
 Approx polarizability: 278.139   0.000 151.728  -6.524  -0.004 209.227

                      1                      2                      3
                      A                      A                      A
 Frequencies --     40.8440                51.0951                80.1800
 Red. masses --      4.2686                 9.7234                 6.5098
 Frc consts  --      0.0042                 0.0150                 0.0247
 IR Inten    --      0.2535                 1.1615                 0.6584

                      4                      5                      6
                      A                      A                      A
 Frequencies --    110.6080               122.5869               199.7115
 Red. masses --      3.7814                 5.5572                 6.6137
 Frc consts  --      0.0273                 0.0492                 0.1554
 IR Inten    --      0.0685                 2.9865                 0.2677

                      7                      8                      9
                      A                      A                      A
 Frequencies --    253.5089               253.7091               290.7923
 Red. masses --      5.0769                 7.4692                 5.8870
 Frc consts  --      0.1922                 0.2833                 0.2933
 IR Inten    --      0.0469                 2.0945                 0.9355

                     10                     11                     12
                      A                      A                      A
 Frequencies --    363.2899               396.9850               416.6880
 Red. masses --     10.2637                 1.9721                 2.9711
 Frc consts  --      0.7981                 0.1831                 0.3039
 IR Inten    --      1.4804                 2.4996                 0.0129

                     13                     14                     15
                      A                      A                      A
 Frequencies --    478.5501               510.2339               564.5440
 Red. masses --      4.0475                 3.7914                 9.2334
 Frc consts  --      0.5461                 0.5816                 1.7338
 IR Inten    --     10.9508                 0.0600                 1.1519

                     16                     17                     18
                      A                      A                      A
 Frequencies --    610.0727               629.7334               700.1010
 Red. masses --      6.3989                 6.3311                 4.9901
 Frc consts  --      1.4032                 1.4792                 1.4411
 IR Inten    --      5.2682                 0.0624                 8.3653

                     19                     20                     21
                      A                      A                      A
 Frequencies --    708.7904               709.8926               723.7297
 Red. masses --      2.8719                 5.7424                 1.9240
 Frc consts  --      0.8501                 1.7050                 0.5937
 IR Inten    --      6.2191                 1.8263                81.7143

                     22                     23                     24
                      A                      A                      A
 Frequencies --    799.5978               801.2234               826.0324
 Red. masses --      2.1933                 3.8930                 4.6287
 Frc consts  --      0.8262                 1.4725                 1.8608
 IR Inten    --      0.0717                 0.3767                 2.3154

                     25                     26                     27
                      A                      A                      A
 Frequencies --    843.2442               856.3530               858.3666
 Red. masses --      1.9681                 4.8421                 1.2482
 Frc consts  --      0.8245                 2.0921                 0.5419
 IR Inten    --      0.5298                 0.5842                 0.0555

                     28                     29                     30
                      A                      A                      A
 Frequencies --    935.0054               962.0584               971.0657
 Red. masses --      1.4312                 1.8632                 1.3539
 Frc consts  --      0.7372                 1.0161                 0.7522
 IR Inten    --      0.0339                 1.6348                 0.0072

                     31                     32                     33
                      A                      A                      A
 Frequencies --   1000.2059              1017.4915              1059.1194
 Red. masses --      1.2619                 6.2285                 2.2360
 Frc consts  --      0.7438                 3.7992                 1.4778
 IR Inten    --      0.0017                 1.5494                 2.9673

                     34                     35                     36
                      A                      A                      A
 Frequencies --   1093.1648              1112.9943              1195.0102
 Red. masses --      1.3431                 1.6044                 1.1036
 Frc consts  --      0.9457                 1.1710                 0.9286
 IR Inten    --     11.4279                 4.5833                 0.0232

                     37                     38                     39
                      A                      A                      A
 Frequencies --   1201.5777              1210.7465              1216.9436
 Red. masses --      1.1541                 1.7654                 1.1635
 Frc consts  --      0.9817                 1.5248                 1.0152
 IR Inten    --      2.3424                 0.3587                 1.1015

                     40                     41                     42
                      A                      A                      A
 Frequencies --   1230.1650              1243.4900              1265.7298
 Red. masses --      1.1126                 1.2928                 1.9722
 Frc consts  --      0.9920                 1.1778                 1.8615
 IR Inten    --     30.3815                25.1011                 1.9939

                     43                     44                     45
                      A                      A                      A
 Frequencies --   1271.1393              1284.5147              1363.0952
 Red. masses --      2.1500                 1.3431                 4.8472
 Frc consts  --      2.0468                 1.3057                 5.3063
 IR Inten    --     37.5316                13.4490                 1.3840

                     46                     47                     48
                      A                      A                      A
 Frequencies --   1372.3843              1471.6931              1485.1518
 Red. masses --      1.2784                 1.1085                 1.0976
 Frc consts  --      1.4186                 1.4146                 1.4264
 IR Inten    --      1.8376                12.8588                12.3811

                     49                     50                     51
                      A                      A                      A
 Frequencies --   1501.2514              1544.0440              1643.4140
 Red. masses --      2.1860                 2.1865                 5.4473
 Frc consts  --      2.9028                 3.0713                 8.6681
 IR Inten    --      7.5815                 9.1788                 1.1977

                     52                     53                     54
                      A                      A                      A
 Frequencies --   1662.0952              1818.3011              3047.3644
 Red. masses --      5.5085                11.1118                 1.0664
 Frc consts  --      8.9659                21.6455                 5.8346
 IR Inten    --      0.9254               218.3199                 0.2201

                     55                     56                     57
                      A                      A                      A
 Frequencies --   3055.0322              3074.3018              3151.0973
 Red. masses --      1.0663                 1.0862                 1.0981
 Frc consts  --      5.8638                 6.0485                 6.4242
 IR Inten    --     31.8749                 7.3850                 0.5946

                     58                     59                     60
                      A                      A                      A
 Frequencies --   3152.2063              3181.4591              3189.4451
 Red. masses --      1.0991                 1.0863                 1.0876
 Frc consts  --      6.4348                 6.4779                 6.5184
 IR Inten    --      1.3791                 4.2135                 1.1280

                     61                     62                     63
                      A                      A                      A
 Frequencies --   3198.9598              3207.6779              3214.9175
 Red. masses --      1.0910                 1.0942                 1.0974
 Frc consts  --      6.5782                 6.6331                 6.6830
 IR Inten    --     21.2960                24.7706                11.3934

 - Thermochemistry -
 -------------------
 Temperature   298.150 Kelvin.  Pressure   1.00000 Atm.
 Atom     1 has atomic number  8 and mass  15.99491

 Molecular mass:   210.01731 amu.
 Principal axes and moments of inertia in atomic units:
                           1         2         3
     Eigenvalues --  1152.353205137.053765454.59670
           X            0.99997  -0.00000   0.00813
           Y            0.00000   1.00000  -0.00001
           Z           -0.00813   0.00001   0.99997
 This molecule is an asymmetric top.
 Rotational symmetry number  1.
 Warning -- assumption of classical behavior for rotation
           may cause significant error
 Rotational temperatures (Kelvin)      0.07516     0.01686     0.01588
 Rotational constants (GHZ):           1.56614     0.35132     0.33087
 Zero-point vibrational energy     465375.9 (Joules/Mol)
                                  111.22751 (Kcal/Mol)
 Warning -- explicit consideration of  16 degrees of freedom as
           vibrations may cause significant error
 Vibrational temperatures:     58.77    73.51   115.36   159.14   176.38
          (Kelvin)            287.34   364.74   365.03   418.39   522.69
                              571.17   599.52   688.53   734.11   812.25
                              877.76   906.05  1007.29  1019.79  1021.38
                             1041.29  1150.44  1152.78  1188.48  1213.24
                             1232.10  1235.00  1345.26  1384.19  1397.15
                             1439.07  1463.94  1523.84  1572.82  1601.35
                             1719.35  1728.80  1741.99  1750.91  1769.93
                             1789.10  1821.10  1828.89  1848.13  1961.19
                             1974.55  2117.44  2136.80  2159.97  2221.53
                             2364.51  2391.38  2616.13  4384.48  4395.51
                             4423.23  4533.73  4535.32  4577.41  4588.90
                             4602.59  4615.13  4625.55

 Zero-point correction=                           0.177252 (Hartree/Particle)
 Thermal correction to Energy=                    0.189108
 Thermal correction to Enthalpy=                  0.190052
 Thermal correction to Gibbs Free Energy=         0.137744
 Sum of electronic and zero-point Energies=          -1258.498562
 Sum of electronic and thermal Energies=             -1258.486706
 Sum of electronic and thermal Enthalpies=           -1258.485762
 Sum of electronic and thermal Free Energies=        -1258.538070

                     E (Thermal)             CV                S
                      KCal/Mol        Cal/Mol-Kelvin    Cal/Mol-Kelvin
 Total                  118.667             44.910            110.092
 Electronic               0.000              0.000              0.000
 Translational            0.889              2.981             41.930
 Rotational               0.889              2.981             31.846
 Vibrational            116.890             38.949             36.316
 Vibration     1          0.594              1.981              5.218
 Vibration     2          0.595              1.977              4.775
 Vibration     3          0.600              1.963              3.886
 Vibration     4          0.606              1.941              3.258
 Vibration     5          0.610              1.930              3.059
 Vibration     6          0.638              1.840              2.136
 Vibration     7          0.665              1.757              1.706
 Vibration     8          0.665              1.757              1.705
 Vibration     9          0.687              1.691              1.469
 Vibration    10          0.737              1.548              1.108
 Vibration    11          0.763              1.477              0.974
 Vibration    12          0.780              1.434              0.903
 Vibration    13          0.835              1.298              0.714
 Vibration    14          0.865              1.227              0.633
 Vibration    15          0.920              1.108              0.515
 Vibration    16          0.969              1.010              0.433

 Normal termination of Gaussian 16 at Sat Feb 24 00:22:01 2024.
