 Gaussian 16, Revision A.03,
 Gaussian 16:  EM64M-G16RevA.03 25-Dec-2016

 ---------------------
 # freq b3lyp/6-31g(d)
 ---------------------

 ---------
 good luck
 ---------
 Symbolic Z-matrix:
 Charge =  0 Multiplicity = 1

                         Standard orientation:
 ---------------------------------------------------------------------
 Center     Atomic      Atomic             Coordinates (Angstroms)
 Number     Number       Type             X           Y           Z
 ---------------------------------------------------------------------
      1          8           0        2.542149    2.302648   -0.648301
      2          6           0        1.633610    1.788572   -0.024417
      3          6           0        0.422849    2.576728    0.451616
      4          6           0       -0.888284    1.892001    0.010945
      5          6           0       -0.905967    0.426181    0.441863
      6         35           0       -2.660846   -0.361867   -0.140560
      7          6           0        0.279397   -0.377854   -0.107534
      8          6           0        0.290591   -1.855880    0.322857
      9          6           0        1.518340   -2.605360   -0.214550
     10          6           0        2.828188   -1.923229    0.201907
     11          6           0        2.839645   -0.446127   -0.209102
     12          6           0        1.616360    0.303438    0.336745
     13          1           0        0.486893    3.596994    0.063195
     14          1           0        0.456086    2.632199    1.549921
     15          1           0       -0.981228    1.945954   -1.080292
     16          1           0       -1.748633    2.421042    0.431694
     17          1           0       -0.948680    0.341996    1.531956
     18          1           0        0.232825   -0.334522   -1.206160
     19          1           0        0.283681   -1.904011    1.422794
     20          1           0       -0.627607   -2.344005   -0.018496
     21          1           0        1.462983   -2.646632   -1.312142
     22          1           0        1.498213   -3.644391    0.136601
     23          1           0        3.686826   -2.441946   -0.242039
     24          1           0        2.947355   -2.000825    1.292953
     25          1           0        2.846336   -0.360573   -1.303746
     26          1           0        3.751306    0.052048    0.137364
     27          1           0        1.637684    0.260010    1.440412
 ---------------------------------------------------------------------

 SCF Done:  E(RB3LYP) =  -3037.05272739     A.U. after   14 cycles

 The electronic state is 1-A.
 Alpha  occ. eigenvalues -- -482.89672 -61.85868 -56.37910 -56.37542 -56.37531
 Alpha  occ. eigenvalues --  -19.14441 -10.27759 -10.25501 -10.21306 -10.20936
 Alpha  occ. eigenvalues --  -10.20670 -10.20338 -10.18827 -10.18583 -10.18499
 Alpha  occ. eigenvalues --  -10.18476  -8.56935  -6.52264  -6.51055  -6.51045
 Alpha  occ. eigenvalues --   -2.63831  -2.63497  -2.63489  -2.62525  -2.62525
 Alpha  occ. eigenvalues --   -1.04328  -0.86833  -0.82008  -0.78116  -0.75344
 Alpha  occ. eigenvalues --   -0.74496  -0.69520  -0.63348  -0.62865  -0.58788
 Alpha  occ. eigenvalues --   -0.56627  -0.54135  -0.48129  -0.47677  -0.46672
 Alpha  occ. eigenvalues --   -0.45749  -0.45341  -0.42739  -0.42358  -0.41662
 Alpha  occ. eigenvalues --   -0.40539  -0.38295  -0.37452  -0.37079  -0.36321
 Alpha  occ. eigenvalues --   -0.35229  -0.34988  -0.33801  -0.32795  -0.31665
 Alpha  occ. eigenvalues --   -0.30663  -0.27395  -0.27184  -0.24528
 Alpha virt. eigenvalues --   -0.02363  -0.00793   0.07909   0.08862   0.10692
 Alpha virt. eigenvalues --    0.11593   0.12777   0.13285   0.14105   0.14767
 Alpha virt. eigenvalues --    0.15579   0.16539   0.17019   0.17252   0.17964

 Mulliken charges:
               1
     1  O   -0.444570
     2  C    0.452838
     3  C   -0.355221
     4  C   -0.272829
     5  C   -0.134910
     6  Br  -0.157376
     7  C   -0.090698
     8  C   -0.268193
     9  C   -0.264777
    10  C   -0.265554
    11  C   -0.254481
    12  C   -0.190680
    13  H    0.173244
    14  H    0.158735
    15  H    0.167131
    16  H    0.166922
    17  H    0.171228
    18  H    0.144538
    19  H    0.126430
    20  H    0.163209
    21  H    0.135177
    22  H    0.137500
    23  H    0.138081
    24  H    0.128003
    25  H    0.145002
    26  H    0.151837
    27  H    0.139414
 Sum of Mulliken charges =  -0.00000

 Dipole moment (field-independent basis, Debye):
    X=              0.0474    Y=             -0.6031    Z=              1.7051  Tot=              1.8092
 Quadrupole moment (field-independent basis, Debye-Ang):
   XX=            -96.3975   YY=            -86.3432   ZZ=            -83.8831
   XY=             -8.4092   XZ=              2.9822   YZ=              3.6690

  Exact polarizability: 139.004   3.096 123.560  -0.962   0.175  92.405
 Approx polarizability: 194.047  16.488 165.724  -2.081  -1.885 158.836

                      1                      2                      3
                      A                      A                      A
 Frequencies --     62.8845                78.7591               136.7211
 Red. masses --      6.5132                 3.1641                 4.0300
 Frc consts  --      0.0152                 0.0116                 0.0444
 IR Inten    --      3.6889                 0.3696                 1.3477

                      4                      5                      6
                      A                      A                      A
 Frequencies --    160.4346               186.6177               232.0900
 Red. masses --      3.4456                 2.6228                 6.6966
 Frc consts  --      0.0523                 0.0538                 0.2125
 IR Inten    --      0.3567                 0.3834                 2.4980

                      7                      8                      9
                      A                      A                      A
 Frequencies --    269.0120               296.3845               317.3064
 Red. masses --      3.5598                 1.9650                 2.8388
 Frc consts  --      0.1518                 0.1017                 0.1684
 IR Inten    --      4.9851                 0.1218                 3.0519

                     10                     11                     12
                      A                      A                      A
 Frequencies --    375.5940               399.6245               423.9213
 Red. masses --      3.2815                 3.0366                 3.3983
 Frc consts  --      0.2727                 0.2857                 0.3598
 IR Inten    --      0.1913                 2.1618                 0.6437

                     13                     14                     15
                      A                      A                      A
 Frequencies --    462.3511               482.0853               522.0311
 Red. masses --      2.8868                 2.2636                 1.8935
 Frc consts  --      0.3636                 0.3100                 0.3040
 IR Inten    --      4.4842                 0.3634                 1.3130

                     16                     17                     18
                      A                      A                      A
 Frequencies --    577.4548               642.5499               726.1268
 Red. masses --      3.3434                 5.3692                 2.8777
 Frc consts  --      0.6569                 1.3061                 0.8940
 IR Inten    --      8.4799                21.6720                16.4670

                     19                     20                     21
                      A                      A                      A
 Frequencies --    788.9107               825.2234               848.8257
 Red. masses --      1.9698                 2.0987                 2.7367
 Frc consts  --      0.7223                 0.8421                 1.1618
 IR Inten    --      0.1817                 1.4825                11.8552

                     22                     23                     24
                      A                      A                      A
 Frequencies --    859.4792               874.7336               915.1630
 Red. masses --      1.6602                 2.1174                 1.5226
 Frc consts  --      0.7226                 0.9546                 0.7513
 IR Inten    --      0.9942                 4.1922                 4.1146

                     25                     26                     27
                      A                      A                      A
 Frequencies --    922.2191               973.2311               986.6544
 Red. masses --      2.4417                 2.2557                 2.0316
 Frc consts  --      1.2235                 1.2588                 1.1653
 IR Inten    --      7.1510                 0.3237                 4.4001

                     28                     29                     30
                      A                      A                      A
 Frequencies --   1018.3475              1041.0980              1059.8701
 Red. masses --      2.0249                 1.9360                 1.8659
 Frc consts  --      1.2372                 1.2363                 1.2349
 IR Inten    --      2.9336                 0.4947                 4.4007

                     31                     32                     33
                      A                      A                      A
 Frequencies --   1073.4546              1094.6203              1107.7120
 Red. masses --      1.4960                 2.2552                 2.1006
 Frc consts  --      1.0157                 1.5921                 1.5186
 IR Inten    --      2.6277                 8.8324                14.5647

                     34                     35                     36
                      A                      A                      A
 Frequencies --   1127.5112              1140.9780              1165.1308
 Red. masses --      2.0572                 1.7196                 1.7668
 Frc consts  --      1.5409                 1.3190                 1.4132
 IR Inten    --      2.1657                 3.9796                 3.4427

                     37                     38                     39
                      A                      A                      A
 Frequencies --   1200.1281              1211.3319              1237.1296
 Red. masses --      1.3758                 1.7612                 1.4288
 Frc consts  --      1.1675                 1.5226                 1.2884
 IR Inten    --     24.9046                20.0841                 9.4128

                     40                     41                     42
                      A                      A                      A
 Frequencies --   1260.8295              1279.9289              1289.2853
 Red. masses --      1.2954                 1.4612                 1.3593
 Frc consts  --      1.2133                 1.4103                 1.3313
 IR Inten    --     15.2508                 3.8564                 4.0527

                     43                     44                     45
                      A                      A                      A
 Frequencies --   1317.8538              1325.7987              1339.7301
 Red. masses --      1.2606                 1.2895                 1.3851
 Frc consts  --      1.2899                 1.3355                 1.4648
 IR Inten    --      0.6625                 3.9358                11.6769

                     46                     47                     48
                      A                      A                      A
 Frequencies --   1356.6494              1364.5395              1379.3506
 Red. masses --      1.2544                 1.3312                 1.4162
 Frc consts  --      1.3602                 1.4604                 1.5875
 IR Inten    --      0.9923                 1.4512                 5.2157

                     49                     50                     51
                      A                      A                      A
 Frequencies --   1385.7139              1396.2084              1398.5433
 Red. masses --      1.3675                 1.4276                 1.4259
 Frc consts  --      1.5472                 1.6397                 1.6432
 IR Inten    --      2.3989                 3.2379                 1.4536

                     52                     53                     54
                      A                      A                      A
 Frequencies --   1406.5037              1416.5929              1497.5853
 Red. masses --      1.5110                 1.6433                 1.0897
 Frc consts  --      1.7612                 1.9429                 1.4400
 IR Inten    --      6.0948                 2.3940                 8.7612

                     55                     56                     57
                      A                      A                      A
 Frequencies --   1511.8698              1515.6935              1518.5548
 Red. masses --      1.0881                 1.0937                 1.0797
 Frc consts  --      1.4654                 1.4804                 1.4669
 IR Inten    --      2.5456                 1.6827                 8.7695

                     58                     59                     60
                      A                      A                      A
 Frequencies --   1525.4879              1531.4281              1814.6561
 Red. masses --      1.0909                 1.0995                11.5966
 Frc consts  --      1.4958                 1.5193                22.4994
 IR Inten    --      4.2588                 0.1090               176.8795

                     61                     62                     63
                      A                      A                      A
 Frequencies --   2974.0422              3013.8492              3021.4043
 Red. masses --      1.0799                 1.0737                 1.0709
 Frc consts  --      5.6278                 5.7464                 5.7598
 IR Inten    --      8.9325                 4.3279                21.8814

                     64                     65                     66
                      A                      A                      A
 Frequencies --   3025.2875              3031.4077              3032.6238
 Red. masses --      1.0759                 1.0686                 1.0663
 Frc consts  --      5.8015                 5.7856                 5.7777
 IR Inten    --      7.1627                 3.3353                56.1436

                     67                     68                     69
                      A                      A                      A
 Frequencies --   3051.4059              3065.7952              3076.7095
 Red. masses --      1.0665                 1.0634                 1.0927
 Frc consts  --      5.8508                 5.8888                 6.0942
 IR Inten    --     15.2578                10.7045                58.8719

                     70                     71                     72
                      A                      A                      A
 Frequencies --   3079.9519              3094.5484              3101.5664
 Red. masses --      1.1001                 1.0859                 1.0996
 Frc consts  --      6.1487                 6.1268                 6.2321
 IR Inten    --     56.2719                 9.5562                29.1117

                     73                     74                     75
                      A                      A                      A
 Frequencies --   3105.5538              3117.9609              3124.3092
 Red. masses --      1.0928                 1.1006                 1.0966
 Frc consts  --      6.2095                 6.3041                 6.3066
 IR Inten    --     21.8497                21.0684                15.5736

 - Thermochemistry -
 -------------------
 Temperature   298.150 Kelvin.  Pressure   1.00000 Atm.
 Atom     1 has atomic number  8 and mass  15.99491

 Molecular mass:   230.03063 amu.
 Principal axes and moments of inertia in atomic units:
                           1         2         3
     Eigenvalues --  1901.290853776.209115432.65252
           X            0.99765  -0.06839  -0.00283
           Y            0.06840   0.99764   0.00630
           Z            0.00240  -0.00648   0.99998
 This molecule is an asymmetric top.
 Rotational symmetry number  1.
 Warning -- assumption of classical behavior for rotation
           may cause significant error
 Rotational temperatures (Kelvin)      0.04556     0.02294     0.01594
 Rotational constants (GHZ):           0.94922     0.47792     0.33220
 Zero-point vibrational energy     619503.6 (Joules/Mol)
                                  148.06492 (Kcal/Mol)
 Warning -- explicit consideration of  16 degrees of freedom as
           vibrations may cause significant error
 Vibrational temperatures:     90.48   113.32   196.71   230.83   268.50
          (Kelvin)            333.93   387.05   426.43   456.53   540.40
                              574.97   609.93   665.22   693.61   751.09
                              830.83   924.49  1044.73  1135.07  1187.31
                             1221.27  1236.60  1258.55  1316.72  1326.87
                             1400.26  1419.58  1465.17  1497.91  1524.92
                             1544.46  1574.91  1593.75  1622.24  1641.61
                             1676.36  1726.72  1742.84  1779.95  1814.05
                             1841.53  1854.99  1896.10  1907.53  1927.57
                             1951.92  1963.27  1984.58  1993.73  2008.83
                             2012.19  2023.65  2038.16  2154.69  2175.24
                             2180.74  2184.86  2194.84  2203.38  2610.89
                             4278.98  4336.26  4347.13  4352.71  4361.52
                             4363.27  4390.29  4411.00  4426.70  4431.36
                             4452.36  4462.46  4468.20  4486.05  4495.18

 Zero-point correction=                           0.235956 (Hartree/Particle)
 Thermal correction to Energy=                    0.247049
 Thermal correction to Enthalpy=                  0.247993
 Thermal correction to Gibbs Free Energy=         0.198120
 Sum of electronic and zero-point Energies=          -3036.816771
 Sum of electronic and thermal Energies=             -3036.805679
 Sum of electronic and thermal Enthalpies=           -3036.804735
 Sum of electronic and thermal Free Energies=        -3036.854607

                     E (Thermal)             CV                S
                      KCal/Mol        Cal/Mol-Kelvin    Cal/Mol-Kelvin
 Total                  155.025             43.546            104.965
 Electronic               0.000              0.000              0.000
 Translational            0.889              2.981             42.201
 Rotational               0.889              2.981             32.034
 Vibrational            153.248             37.584             30.730
 Vibration     1          0.597              1.972              4.365
 Vibration     2          0.600              1.963              3.922
 Vibration     3          0.614              1.917              2.849
 Vibration     4          0.622              1.891              2.545
 Vibration     5          0.632              1.858              2.261
 Vibration     6          0.653              1.792              1.863
 Vibration     7          0.673              1.730              1.603
 Vibration     8          0.690              1.680              1.437
 Vibration     9          0.704              1.641              1.324
 Vibration    10          0.746              1.522              1.057
 Vibration    11          0.766              1.471              0.964
 Vibration    12          0.786              1.418              0.879
 Vibration    13          0.820              1.334              0.759
 Vibration    14          0.838              1.290              0.704
 Vibration    15          0.877              1.201              0.605
 Vibration    16          0.934              1.080              0.490

 Normal termination of Gaussian 16 at Fri Feb 23 23:28:24 2024.
