 Gaussian 16, Revision A.03,
 Gaussian 16:  EM64M-G16RevA.03 25-Dec-2016

 ---------------------
 # freq b3lyp/6-31g(d)
 ---------------------

 ---------
 good luck
 ---------
 Symbolic Z-matrix:
 Charge =  0 Multiplicity = 1

                         Standard orientation:
 ---------------------------------------------------------------------
 Center     Atomic      Atomic             Coordinates (Angstroms)
 Number     Number       Type             X           Y           Z
 ---------------------------------------------------------------------
      1          8           0       -2.303190   -1.130141   -0.461970
      2          6           0       -1.386093   -0.446961   -0.063091
      3          6           0       -0.841790    0.840054   -0.682053
      4          6           0       -0.354745    1.590598    0.578918
      5          6           0        0.511567    0.434092   -1.343671
      6          6           0        1.477208    0.220448   -0.127042
      7          6           0        2.266227   -1.089909   -0.164145
      8          6           0        0.530762    0.427112    1.090072
      9          6           0       -0.506081   -0.714407    1.173079
     10          1           0       -1.550209    1.335383   -1.348066
     11          1           0       -1.165562    1.857280    1.267094
     12          1           0        0.217067    2.494891    0.342526
     13          1           0        0.410378   -0.466403   -1.960091
     14          1           0        0.861680    1.237604   -2.000788
     15          1           0        2.203393    1.043890   -0.108578
     16          1           0        1.611451   -1.964456   -0.251591
     17          1           0        2.945004   -1.106865   -1.025006
     18          1           0        2.874905   -1.214262    0.739843
     19          1           0        1.062680    0.610905    2.028240
     20          1           0       -1.124864   -0.621731    2.075684
     21          1           0       -0.102737   -1.731272    1.164094
 ---------------------------------------------------------------------

 SCF Done:  E(RB3LYP) =  -387.295237041     A.U. after   13 cycles

 The electronic state is 1-A.
 Alpha  occ. eigenvalues --  -19.13247 -10.26652 -10.19685 -10.19606 -10.19398
 Alpha  occ. eigenvalues --  -10.19208 -10.19150 -10.18875 -10.18019  -1.03169
 Alpha  occ. eigenvalues --   -0.87829  -0.76249  -0.74105  -0.69223  -0.66373
 Alpha  occ. eigenvalues --   -0.58783  -0.55402  -0.52364  -0.49517  -0.46741
 Alpha  occ. eigenvalues --   -0.46348  -0.41938  -0.41578  -0.40131  -0.39759
 Alpha  occ. eigenvalues --   -0.38413  -0.36964  -0.35908  -0.35703  -0.34184
 Alpha  occ. eigenvalues --   -0.32197  -0.31521  -0.30923  -0.23046
 Alpha virt. eigenvalues --   -0.00884   0.07540   0.10981   0.11749   0.12997
 Alpha virt. eigenvalues --    0.13960   0.14923   0.15822   0.16295   0.17145
 Alpha virt. eigenvalues --    0.17200   0.18719   0.19144   0.19520   0.20719

 Mulliken charges:
               1
     1  O   -0.456743
     2  C    0.454294
     3  C   -0.171157
     4  C   -0.287727
     5  C   -0.297207
     6  C   -0.065646
     7  C   -0.460095
     8  C   -0.119618
     9  C   -0.357280
    10  H    0.139474
    11  H    0.143877
    12  H    0.141500
    13  H    0.154723
    14  H    0.149270
    15  H    0.129081
    16  H    0.148346
    17  H    0.147955
    18  H    0.144196
    19  H    0.123893
    20  H    0.169462
    21  H    0.169403
 Sum of Mulliken charges =  -0.00000

 Dipole moment (field-independent basis, Debye):
    X=              2.5248    Y=              1.6674    Z=              0.8825  Tot=              3.1517
 Quadrupole moment (field-independent basis, Debye-Ang):
   XX=            -61.2110   YY=            -55.5535   ZZ=            -53.2750
   XY=             -4.2695   XZ=             -2.5578   YZ=             -1.4064

  Exact polarizability:  83.479   1.623  76.241   0.570  -0.942  75.415
 Approx polarizability: 117.412   9.446 112.369   3.609   0.914 109.539

                      1                      2                      3
                      A                      A                      A
 Frequencies --     85.1646               177.7411               245.0358
 Red. masses --      4.1312                 2.2490                 1.2754
 Frc consts  --      0.0177                 0.0419                 0.0451
 IR Inten    --      2.7865                 1.7647                 0.0721

                      4                      5                      6
                      A                      A                      A
 Frequencies --    290.5042               357.2387               418.7160
 Red. masses --      2.0382                 2.0389                 2.3212
 Frc consts  --      0.1013                 0.1533                 0.2398
 IR Inten    --      0.1386                 0.3418                 2.0574

                      7                      8                      9
                      A                      A                      A
 Frequencies --    461.0917               474.8175               500.2969
 Red. masses --      2.9430                 2.5036                 4.7138
 Frc consts  --      0.3686                 0.3326                 0.6951
 IR Inten    --      5.4169                 0.4317                 1.6264

                     10                     11                     12
                      A                      A                      A
 Frequencies --    597.2418               690.0747               723.0166
 Red. masses --      2.5297                 4.0396                 2.9458
 Frc consts  --      0.5316                 1.1334                 0.9073
 IR Inten    --      1.6925                 0.4549                 5.2168

                     13                     14                     15
                      A                      A                      A
 Frequencies --    790.5182               799.6594               872.7341
 Red. masses --      3.1363                 3.1093                 2.3856
 Frc consts  --      1.1548                 1.1714                 1.0706
 IR Inten    --      3.5299                 1.9490                 4.1179

                     16                     17                     18
                      A                      A                      A
 Frequencies --    910.7780               924.2063               939.4444
 Red. masses --      1.8088                 2.7145                 1.7623
 Frc consts  --      0.8840                 1.3661                 0.9164
 IR Inten    --      1.3029                 4.0290                 0.4169

                     19                     20                     21
                      A                      A                      A
 Frequencies --    944.8446               957.3503               991.7090
 Red. masses --      2.2454                 1.8639                 1.5746
 Frc consts  --      1.1810                 1.0065                 0.9124
 IR Inten    --      4.4329                 0.2512                 1.5255

                     22                     23                     24
                      A                      A                      A
 Frequencies --   1020.5147              1069.5423              1076.0938
 Red. masses --      1.5095                 2.0666                 1.4164
 Frc consts  --      0.9263                 1.3928                 0.9664
 IR Inten    --      9.8375                 1.3044                17.6605

                     25                     26                     27
                      A                      A                      A
 Frequencies --   1108.7955              1138.2511              1150.5319
 Red. masses --      1.4204                 1.4531                 1.2401
 Frc consts  --      1.0289                 1.1092                 0.9672
 IR Inten    --      3.7486                 4.1491                 1.5857

                     28                     29                     30
                      A                      A                      A
 Frequencies --   1179.0758              1199.0418              1220.3965
 Red. masses --      1.9022                 1.9860                 1.4851
 Frc consts  --      1.5581                 1.6823                 1.3032
 IR Inten    --     13.0356                 7.5279                 1.6720

                     31                     32                     33
                      A                      A                      A
 Frequencies --   1266.1520              1278.3475              1300.4335
 Red. masses --      1.5464                 1.6477                 1.3393
 Frc consts  --      1.4606                 1.5865                 1.3345
 IR Inten    --      0.3233                 2.5038                 0.1236

                     34                     35                     36
                      A                      A                      A
 Frequencies --   1317.5993              1332.7333              1346.2599
 Red. masses --      1.6908                 1.5583                 1.4651
 Frc consts  --      1.7294                 1.6307                 1.5645
 IR Inten    --      2.0504                 2.9974                 1.0850

                     37                     38                     39
                      A                      A                      A
 Frequencies --   1372.6502              1396.0029              1441.9512
 Red. masses --      1.4612                 1.4536                 1.2486
 Frc consts  --      1.6221                 1.6691                 1.5296
 IR Inten    --      2.6212                 3.1281                 2.2231

                     40                     41                     42
                      A                      A                      A
 Frequencies --   1484.9649              1522.9456              1528.7231
 Red. masses --      1.0882                 1.0737                 1.0583
 Frc consts  --      1.4138                 1.4672                 1.4572
 IR Inten    --     10.5054                 4.6396                 4.9033

                     43                     44                     45
                      A                      A                      A
 Frequencies --   1535.0276              1540.0357              1850.4315
 Red. masses --      1.0545                 1.0944                12.2478
 Frc consts  --      1.4640                 1.5293                24.7090
 IR Inten    --      2.6992                 1.4739               238.3050

                     46                     47                     48
                      A                      A                      A
 Frequencies --   3032.9388              3043.5772              3056.2016
 Red. masses --      1.0850                 1.0361                 1.0675
 Frc consts  --      5.8806                 5.6548                 5.8748
 IR Inten    --     18.0679                24.6570                12.7951

                     49                     50                     51
                      A                      A                      A
 Frequencies --   3061.8236              3063.6192              3101.8389
 Red. masses --      1.0590                 1.0604                 1.1063
 Frc consts  --      5.8491                 5.8640                 6.2713
 IR Inten    --     44.5493                14.7172                16.1759

                     52                     53                     54
                      A                      A                      A
 Frequencies --   3102.8795              3106.9647              3108.2497
 Red. masses --      1.0890                 1.1024                 1.1073
 Frc consts  --      6.1775                 6.2700                 6.3033
 IR Inten    --     26.8213                24.2531                27.7865

                     55                     56                     57
                      A                      A                      A
 Frequencies --   3111.7605              3122.3367              3141.2330
 Red. masses --      1.1008                 1.0955                 1.0891
 Frc consts  --      6.2803                 6.2924                 6.3317
 IR Inten    --     57.1274                22.4351                22.8352

 - Thermochemistry -
 -------------------
 Temperature   298.150 Kelvin.  Pressure   1.00000 Atm.
 Atom     1 has atomic number  8 and mass  15.99491

 Molecular mass:   124.08882 amu.
 Principal axes and moments of inertia in atomic units:
                           1         2         3
     Eigenvalues --   715.048141200.094091280.47829
           X            0.99764  -0.06590  -0.01928
           Y            0.06461   0.99603  -0.06117
           Z            0.02324   0.05978   0.99794
 This molecule is an asymmetric top.
 Rotational symmetry number  1.
 Warning -- assumption of classical behavior for rotation
           may cause significant error
 Rotational temperatures (Kelvin)      0.12113     0.07217     0.06764
 Rotational constants (GHZ):           2.52394     1.50383     1.40943
 Zero-point vibrational energy     489763.8 (Joules/Mol)
                                  117.05635 (Kcal/Mol)
 Warning -- explicit consideration of  10 degrees of freedom as
           vibrations may cause significant error
 Vibrational temperatures:    122.53   255.73   352.55   417.97   513.99
          (Kelvin)            602.44   663.41   683.16   719.82   859.30
                              992.86  1040.26  1137.38  1150.53  1255.67
                             1310.41  1329.73  1351.65  1359.42  1377.41
                             1426.85  1468.29  1538.83  1548.26  1595.31
                             1637.69  1655.36  1696.43  1725.15  1755.88
                             1821.71  1839.26  1871.03  1895.73  1917.51
                             1936.97  1974.94  2008.54  2074.65  2136.53
                             2191.18  2199.49  2208.56  2215.77  2662.36
                             4363.72  4379.03  4397.19  4405.28  4407.86
                             4462.85  4464.35  4470.23  4472.08  4477.13
                             4492.35  4519.53

 Zero-point correction=                           0.186541 (Hartree/Particle)
 Thermal correction to Energy=                    0.194219
 Thermal correction to Enthalpy=                  0.195164
 Thermal correction to Gibbs Free Energy=         0.154540
 Sum of electronic and zero-point Energies=           -387.108696
 Sum of electronic and thermal Energies=              -387.101018
 Sum of electronic and thermal Enthalpies=            -387.100073
 Sum of electronic and thermal Free Energies=         -387.140697

                     E (Thermal)             CV                S
                      KCal/Mol        Cal/Mol-Kelvin    Cal/Mol-Kelvin
 Total                  121.875             31.216             85.500
 Electronic               0.000              0.000              0.000
 Translational            0.889              2.981             40.361
 Rotational               0.889              2.981             28.487
 Vibrational            120.097             25.254             16.652
 Vibration     1          0.601              1.959              3.768
 Vibration     2          0.628              1.870              2.352
 Vibration     3          0.660              1.771              1.766
 Vibration     4          0.686              1.691              1.471
 Vibration     5          0.732              1.560              1.134
 Vibration     6          0.782              1.430              0.896
 Vibration     7          0.819              1.336              0.763
 Vibration     8          0.832              1.306              0.724
 Vibration     9          0.856              1.249              0.657
 Vibration    10          0.955              1.038              0.454

 Normal termination of Gaussian 16 at Wed Feb 21 18:29:03 2024.
