 Gaussian 16, Revision A.03,
 Gaussian 16:  EM64M-G16RevA.03 25-Dec-2016

 ---------------------
 # freq b3lyp/6-31g(d)
 ---------------------

 ---------
 good luck
 ---------
 Symbolic Z-matrix:
 Charge =  0 Multiplicity = 1

                         Standard orientation:
 ---------------------------------------------------------------------
 Center     Atomic      Atomic             Coordinates (Angstroms)
 Number     Number       Type             X           Y           Z
 ---------------------------------------------------------------------
      1          8           0       -2.956170   -1.897651    0.000001
      2          6           0       -2.117053   -1.018772    0.000001
      3          6           0       -1.534291   -0.399018    1.268479
      4          6           0        0.006203   -0.605401    1.259257
      5          6           0       -1.852569    1.117398    1.259291
      6          6           0       -1.243888    1.765725   -0.000001
      7          6           0       -1.852570    1.117396   -1.259291
      8          6           0       -1.534291   -0.399020   -1.268478
      9          6           0        0.006203   -0.605402   -1.259256
     10          6           0        0.584352    0.054887   -0.000000
     11         35           0        2.584192   -0.214497    0.000000
     12          6           0        0.291158    1.560279   -0.000002
     13          1           0       -1.979422   -0.894161    2.136921
     14          1           0        0.443599   -0.157408    2.158807
     15          1           0        0.248689   -1.673670    1.273445
     16          1           0       -2.938645    1.273288    1.281126
     17          1           0       -1.442982    1.580979    2.166551
     18          1           0       -1.456865    2.841974   -0.000001
     19          1           0       -2.938646    1.273286   -1.281126
     20          1           0       -1.442983    1.580978   -2.166552
     21          1           0       -1.979423   -0.894163   -2.136919
     22          1           0        0.443598   -0.157411   -2.158807
     23          1           0        0.248689   -1.673671   -1.273444
     24          1           0        0.738763    2.030074    0.883285
     25          1           0        0.738761    2.030072   -0.883289
 ---------------------------------------------------------------------

 SCF Done:  E(RB3LYP) =  -3035.84827656     A.U. after   14 cycles

 The electronic state is 1-A.
 Alpha  occ. eigenvalues -- -482.89324 -61.85499 -56.37549 -56.37163 -56.37163
 Alpha  occ. eigenvalues --  -19.14218 -10.27359 -10.25961 -10.20880 -10.20624
 Alpha  occ. eigenvalues --  -10.20623 -10.20583 -10.20581 -10.20216 -10.20215
 Alpha  occ. eigenvalues --  -10.20099  -8.56541  -6.51845  -6.50666  -6.50665
 Alpha  occ. eigenvalues --   -2.63417  -2.63088  -2.63087  -2.62147  -2.62147
 Alpha  occ. eigenvalues --   -1.04065  -0.89398  -0.80880  -0.79293  -0.77791
 Alpha  occ. eigenvalues --   -0.72565  -0.69083  -0.66040  -0.61588  -0.59429
 Alpha  occ. eigenvalues --   -0.58000  -0.51655  -0.47390  -0.47229  -0.46405
 Alpha  occ. eigenvalues --   -0.45413  -0.45147  -0.43045  -0.42603  -0.41533
 Alpha  occ. eigenvalues --   -0.41419  -0.39223  -0.37665  -0.37447  -0.35780
 Alpha  occ. eigenvalues --   -0.35335  -0.35168  -0.32149  -0.31393  -0.30601
 Alpha  occ. eigenvalues --   -0.27083  -0.27058  -0.23950
 Alpha virt. eigenvalues --   -0.02196  -0.00787   0.07177   0.10824   0.10965
 Alpha virt. eigenvalues --    0.11872   0.12549   0.12676   0.13718   0.14872
 Alpha virt. eigenvalues --    0.15438   0.16163   0.17870   0.18216   0.18490

 Mulliken charges:
               1
     1  O   -0.452359
     2  C    0.458105
     3  C   -0.180168
     4  C   -0.276892
     5  C   -0.281499
     6  C   -0.108166
     7  C   -0.281499
     8  C   -0.180168
     9  C   -0.276892
    10  C    0.022080
    11  Br  -0.165580
    12  C   -0.264441
    13  H    0.153048
    14  H    0.158778
    15  H    0.165613
    16  H    0.150701
    17  H    0.144284
    18  H    0.136931
    19  H    0.150701
    20  H    0.144283
    21  H    0.153048
    22  H    0.158778
    23  H    0.165613
    24  H    0.152851
    25  H    0.152851
 Sum of Mulliken charges =  -0.00000

 Dipole moment (field-independent basis, Debye):
    X=             -0.4600    Y=              2.6835    Z=             -0.0000  Tot=              2.7227
 Quadrupole moment (field-independent basis, Debye-Ang):
   XX=            -96.6422   YY=            -86.3869   ZZ=            -80.0627
   XY=             -8.1085   XZ=              0.0000   YZ=              0.0000

  Exact polarizability: 135.008   0.954 104.134   0.000  -0.000 101.392
 Approx polarizability: 199.228   6.787 162.093   0.000  -0.000 153.755

                      1                      2                      3
                      A                      A                      A
 Frequencies --     88.4607               173.2630               201.0825
 Red. masses --     11.9936                 3.8589                 4.1617
 Frc consts  --      0.0553                 0.0683                 0.0991
 IR Inten    --      3.8517                 0.9952                 0.1592

                      4                      5                      6
                      A                      A                      A
 Frequencies --    245.6462               276.6121               310.2501
 Red. masses --     11.2211                 2.3903                 2.4700
 Frc consts  --      0.3989                 0.1078                 0.1401
 IR Inten    --      8.7416                 0.8790                 0.4259

                      7                      8                      9
                      A                      A                      A
 Frequencies --    369.4946               391.0492               394.9803
 Red. masses --      5.7352                 2.0282                 4.8403
 Frc consts  --      0.4613                 0.1827                 0.4449
 IR Inten    --      1.6572                 1.0699                 0.0858

                     10                     11                     12
                      A                      A                      A
 Frequencies --    443.4201               446.3637               468.1544
 Red. masses --      1.8441                 1.8042                 4.1971
 Frc consts  --      0.2136                 0.2118                 0.5420
 IR Inten    --      1.1492                 1.7250                 9.6469

                     13                     14                     15
                      A                      A                      A
 Frequencies --    610.4751               631.7661               658.4461
 Red. masses --      5.3152                 3.4898                 6.4049
 Frc consts  --      1.1671                 0.8207                 1.6361
 IR Inten    --      1.0369                 0.8225                14.7512

                     16                     17                     18
                      A                      A                      A
 Frequencies --    718.5094               786.5415               792.9327
 Red. masses --      3.9386                 3.7520                 3.3961
 Frc consts  --      1.1980                 1.3676                 1.2581
 IR Inten    --      4.5735                 1.3912                17.0302

                     19                     20                     21
                      A                      A                      A
 Frequencies --    818.8143               854.3191               903.1289
 Red. masses --      2.9304                 2.6937                 2.3471
 Frc consts  --      1.1576                 1.1583                 1.1279
 IR Inten    --     29.4803                 0.8198                 5.0612

                     22                     23                     24
                      A                      A                      A
 Frequencies --    903.1927               911.0919               943.9006
 Red. masses --      1.5714                 1.5741                 2.2182
 Frc consts  --      0.7553                 0.7698                 1.1644
 IR Inten    --      2.8622                 1.4531                 0.6211

                     25                     26                     27
                      A                      A                      A
 Frequencies --    957.7125               989.7486              1024.6741
 Red. masses --      2.2747                 2.1098                 2.0218
 Frc consts  --      1.2293                 1.2177                 1.2507
 IR Inten    --      6.8062                 0.6775                 2.3096

                     28                     29                     30
                      A                      A                      A
 Frequencies --   1035.9996              1046.1333              1066.0867
 Red. masses --      6.1606                 2.3686                 1.9219
 Frc consts  --      3.8958                 1.5273                 1.2870
 IR Inten    --     32.0171                 0.1364                10.7204

                     31                     32                     33
                      A                      A                      A
 Frequencies --   1077.7177              1092.1708              1122.1856
 Red. masses --      1.8581                 1.7511                 1.3929
 Frc consts  --      1.2715                 1.2307                 1.0334
 IR Inten    --     23.2192                 0.5767                 1.3363

                     34                     35                     36
                      A                      A                      A
 Frequencies --   1134.7596              1157.2307              1205.7500
 Red. masses --      1.1835                 1.1360                 1.1240
 Frc consts  --      0.8979                 0.8964                 0.9628
 IR Inten    --      0.0457                 0.0042                 0.6587

                     37                     38                     39
                      A                      A                      A
 Frequencies --   1235.4584              1260.9238              1279.6462
 Red. masses --      1.7980                 1.4945                 1.6401
 Frc consts  --      1.6169                 1.4000                 1.5824
 IR Inten    --      7.3222                 6.0794                 0.5761

                     40                     41                     42
                      A                      A                      A
 Frequencies --   1298.6093              1304.6449              1321.2944
 Red. masses --      1.6511                 1.4362                 1.6677
 Frc consts  --      1.6405                 1.4403                 1.7154
 IR Inten    --      6.6215                 0.0176                11.3403

                     43                     44                     45
                      A                      A                      A
 Frequencies --   1321.6712              1343.1424              1356.2767
 Red. masses --      1.6378                 1.4971                 1.5499
 Frc consts  --      1.6856                 1.5913                 1.6797
 IR Inten    --      6.3937                 1.9095                 0.7956

                     46                     47                     48
                      A                      A                      A
 Frequencies --   1378.0756              1386.0113              1392.8641
 Red. masses --      1.5980                 1.4508                 1.4525
 Frc consts  --      1.7880                 1.6421                 1.6603
 IR Inten    --      2.2434                 0.5129                 1.0435

                     49                     50                     51
                      A                      A                      A
 Frequencies --   1392.9444              1401.3385              1509.0107
 Red. masses --      1.5390                 1.4841                 1.0867
 Frc consts  --      1.7594                 1.7171                 1.4579
 IR Inten    --      0.9433                 0.1673                 0.0206

                     52                     53                     54
                      A                      A                      A
 Frequencies --   1514.0456              1522.0258              1525.7323
 Red. masses --      1.0891                 1.0907                 1.0949
 Frc consts  --      1.4710                 1.4887                 1.5017
 IR Inten    --      4.9326                12.8691                 7.3578

                     55                     56                     57
                      A                      A                      A
 Frequencies --   1544.2508              1825.0816              3039.3764
 Red. masses --      1.0932                11.3066                 1.0598
 Frc consts  --      1.5360                22.1895                 5.7681
 IR Inten    --      0.9963               226.4672                34.5140

                     58                     59                     60
                      A                      A                      A
 Frequencies --   3039.4170              3054.5392              3061.0498
 Red. masses --      1.0640                 1.0697                 1.0598
 Frc consts  --      5.7912                 5.8804                 5.8506
 IR Inten    --     10.7523                12.7361                15.5831

                     61                     62                     63
                      A                      A                      A
 Frequencies --   3063.0803              3067.7289              3078.1594
 Red. masses --      1.0663                 1.0675                 1.1054
 Frc consts  --      5.8942                 5.9189                 6.1709
 IR Inten    --     44.5225                31.5120                 8.5333

                     64                     65                     66
                      A                      A                      A
 Frequencies --   3082.0751              3096.3607              3098.0245
 Red. masses --      1.1040                 1.0862                 1.0867
 Frc consts  --      6.1789                 6.1358                 6.1452
 IR Inten    --     47.1699                35.4737                15.3044

                     67                     68                     69
                      A                      A                      A
 Frequencies --   3101.5305              3106.3799              3108.6394
 Red. masses --      1.1063                 1.1065                 1.1061
 Frc consts  --      6.2699                 6.2910                 6.2976
 IR Inten    --      9.0057                18.3972                23.6316

 - Thermochemistry -
 -------------------
 Temperature   298.150 Kelvin.  Pressure   1.00000 Atm.
 Atom     1 has atomic number  8 and mass  15.99491

 Molecular mass:   228.01498 amu.
 Principal axes and moments of inertia in atomic units:
                           1         2         3
     Eigenvalues --  1305.260313793.351634020.55788
           X            0.99995  -0.00993   0.00000
           Y            0.00993   0.99995   0.00000
           Z           -0.00000  -0.00000   1.00000
 This molecule is an asymmetric top.
 Rotational symmetry number  1.
 Warning -- assumption of classical behavior for rotation
           may cause significant error
 Rotational temperatures (Kelvin)      0.06636     0.02283     0.02154
 Rotational constants (GHZ):           1.38267     0.47576     0.44888
 Zero-point vibrational energy     564407.0 (Joules/Mol)
                                  134.89650 (Kcal/Mol)
 Warning -- explicit consideration of  13 degrees of freedom as
           vibrations may cause significant error
 Vibrational temperatures:    127.28   249.29   289.31   353.43   397.98
          (Kelvin)            446.38   531.62   562.63   568.29   637.98
                              642.22   673.57   878.34   908.97   947.36
                             1033.77  1131.66  1140.85  1178.09  1229.17
                             1299.40  1299.49  1310.86  1358.06  1377.93
                             1424.03  1474.28  1490.57  1505.15  1533.86
                             1550.60  1571.39  1614.57  1632.67  1665.00
                             1734.81  1777.55  1814.19  1841.13  1868.41
                             1877.09  1901.05  1901.59  1932.48  1951.38
                             1982.74  1994.16  2004.02  2004.14  2016.21
                             2171.13  2178.37  2189.86  2195.19  2221.83
                             2625.89  4372.98  4373.04  4394.80  4404.17
                             4407.09  4413.78  4428.78  4434.42  4454.97
                             4457.37  4462.41  4469.39  4472.64

 Zero-point correction=                           0.214971 (Hartree/Particle)
 Thermal correction to Energy=                    0.224373
 Thermal correction to Enthalpy=                  0.225317
 Thermal correction to Gibbs Free Energy=         0.179750
 Sum of electronic and zero-point Energies=          -3035.633305
 Sum of electronic and thermal Energies=             -3035.623904
 Sum of electronic and thermal Enthalpies=           -3035.622959
 Sum of electronic and thermal Free Energies=        -3035.668527

                     E (Thermal)             CV                S
                      KCal/Mol        Cal/Mol-Kelvin    Cal/Mol-Kelvin
 Total                  140.796             39.392             95.904
 Electronic               0.000              0.000              0.000
 Translational            0.889              2.981             42.175
 Rotational               0.889              2.981             31.366
 Vibrational            139.019             33.431             22.364
 Vibration     1          0.601              1.957              3.694
 Vibration     2          0.627              1.875              2.400
 Vibration     3          0.638              1.838              2.123
 Vibration     4          0.660              1.770              1.762
 Vibration     5          0.678              1.717              1.555
 Vibration     6          0.699              1.654              1.361
 Vibration     7          0.742              1.535              1.082
 Vibration     8          0.759              1.489              0.996
 Vibration     9          0.762              1.481              0.981
 Vibration    10          0.803              1.375              0.816
 Vibration    11          0.806              1.369              0.807
 Vibration    12          0.825              1.321              0.743
 Vibration    13          0.970              1.010              0.432

 Normal termination of Gaussian 16 at Fri Feb 23 23:31:25 2024.
