 Gaussian 16, Revision A.03,
 Gaussian 16:  EM64M-G16RevA.03 25-Dec-2016

 ---------------------
 # freq b3lyp/6-31g(d)
 ---------------------

 ---------
 good luck
 ---------
 Symbolic Z-matrix:
 Charge =  0 Multiplicity = 1

                         Standard orientation:
 ---------------------------------------------------------------------
 Center     Atomic      Atomic             Coordinates (Angstroms)
 Number     Number       Type             X           Y           Z
 ---------------------------------------------------------------------
      1          8           0       -1.188838    2.791527    0.172602
      2          6           0       -1.186063    1.671799   -0.304849
      3          6           0       -2.442072    0.819139   -0.403323
      4          6           0       -2.250741   -0.585313    0.232914
      5          6           0       -3.471564   -1.461711   -0.097227
      6          6           0       -2.135677   -0.447982    1.764920
      7          6           0       -0.978573   -1.234780   -0.365709
      8          6           0        0.304828   -0.391758   -0.236687
      9          6           0        1.497487   -1.120099   -0.888110
     10          6           0        2.872586   -0.443099   -0.753355
     11          6           0        3.384198   -0.302347    0.687359
     12          6           0        4.800905    0.277096    0.761073
     13          6           0        0.080069    1.015779   -0.838423
     14          1           0       -3.272140    1.360550    0.062042
     15          1           0       -2.679365    0.692261   -1.470878
     16          1           0       -4.395420   -1.011419    0.285600
     17          1           0       -3.585580   -1.594186   -1.180124
     18          1           0       -3.373123   -2.456857    0.353929
     19          1           0       -1.324756    0.223832    2.066201
     20          1           0       -1.954225   -1.424375    2.230554
     21          1           0       -3.063648   -0.043276    2.185764
     22          1           0       -1.158237   -1.436025   -1.433522
     23          1           0       -0.819412   -2.213755    0.107191
     24          1           0        0.525248   -0.266322    0.831932
     25          1           0        1.275429   -1.261282   -1.956434
     26          1           0        1.560138   -2.129716   -0.455871
     27          1           0        3.599341   -1.035404   -1.327366
     28          1           0        2.855032    0.546640   -1.230487
     29          1           0        3.365308   -1.288011    1.174730
     30          1           0        2.704577    0.336920    1.266539
     31          1           0        4.844679    1.275194    0.308070
     32          1           0        5.142760    0.367790    1.798317
     33          1           0        5.517666   -0.359417    0.227584
     34          1           0       -0.025352    0.915217   -1.930940
     35          1           0        0.919484    1.689086   -0.645149
 ---------------------------------------------------------------------

 SCF Done:  E(RB3LYP) =  -545.772333095     A.U. after   13 cycles

 The electronic state is 1-A.
 Alpha  occ. eigenvalues --  -19.13045 -10.26628 -10.20669 -10.19622 -10.18660
 Alpha  occ. eigenvalues --  -10.18561 -10.18510 -10.18414 -10.18105 -10.18082
 Alpha  occ. eigenvalues --  -10.17837 -10.17685 -10.17342  -1.02901  -0.84759
 Alpha  occ. eigenvalues --   -0.80633  -0.77439  -0.73688  -0.70915  -0.68910
 Alpha  occ. eigenvalues --   -0.68621  -0.63891  -0.59698  -0.56073  -0.55301
 Alpha  occ. eigenvalues --   -0.52265  -0.47776  -0.46839  -0.46053  -0.45406
 Alpha  occ. eigenvalues --   -0.44118  -0.43268  -0.42223  -0.41764  -0.41039
 Alpha  occ. eigenvalues --   -0.39721  -0.38772  -0.38227  -0.37496  -0.37095
 Alpha  occ. eigenvalues --   -0.35993  -0.35444  -0.35016  -0.34451  -0.33694
 Alpha  occ. eigenvalues --   -0.32795  -0.32118  -0.31357  -0.30900  -0.30257
 Alpha  occ. eigenvalues --   -0.23254
 Alpha virt. eigenvalues --   -0.00998   0.07117   0.08920   0.09928   0.11061
 Alpha virt. eigenvalues --    0.11958   0.12272   0.13213   0.14047   0.14956
 Alpha virt. eigenvalues --    0.15037   0.15707   0.16260   0.16789   0.17152

 Mulliken charges:
               1
     1  O   -0.451974
     2  C    0.445108
     3  C   -0.339122
     4  C    0.079686
     5  C   -0.444743
     6  C   -0.454568
     7  C   -0.264690
     8  C   -0.101276
     9  C   -0.258913
    10  C   -0.256308
    11  C   -0.251595
    12  C   -0.442174
    13  C   -0.348909
    14  H    0.155924
    15  H    0.146057
    16  H    0.143835
    17  H    0.138717
    18  H    0.141925
    19  H    0.154774
    20  H    0.141135
    21  H    0.147203
    22  H    0.123429
    23  H    0.131388
    24  H    0.139096
    25  H    0.125107
    26  H    0.128689
    27  H    0.129967
    28  H    0.134877
    29  H    0.129574
    30  H    0.138985
    31  H    0.143978
    32  H    0.143509
    33  H    0.141398
    34  H    0.146181
    35  H    0.163728
 Sum of Mulliken charges =  -0.00000

 Dipole moment (field-independent basis, Debye):
    X=              0.1938    Y=             -2.8968    Z=             -0.8399  Tot=              3.0223
 Quadrupole moment (field-independent basis, Debye-Ang):
   XX=            -81.0642   YY=            -93.4090   ZZ=            -81.4225
   XY=              3.1605   XZ=              0.8966   YZ=             -2.2433

  Exact polarizability: 144.713   1.940 122.192  -1.311   2.599 110.178
 Approx polarizability: 170.149  -0.878 185.179  -1.223   7.563 167.857

                      1                      2                      3
                      A                      A                      A
 Frequencies --     30.9610                58.9489                77.0698
 Red. masses --      3.3193                 3.2994                 1.6799
 Frc consts  --      0.0019                 0.0068                 0.0059
 IR Inten    --      0.3015                 0.2908                 0.0457

                      4                      5                      6
                      A                      A                      A
 Frequencies --     88.0516               113.7477               160.0417
 Red. masses --      4.6730                 2.7364                 2.7829
 Frc consts  --      0.0213                 0.0209                 0.0420
 IR Inten    --      2.7692                 0.8091                 0.1333

                      7                      8                      9
                      A                      A                      A
 Frequencies --    181.3728               224.6076               241.4382
 Red. masses --      2.5812                 1.2005                 1.2888
 Frc consts  --      0.0500                 0.0357                 0.0443
 IR Inten    --      0.1639                 0.2456                 0.0172

                     10                     11                     12
                      A                      A                      A
 Frequencies --    254.8049               269.9663               281.8918
 Red. masses --      1.3551                 1.7333                 1.9649
 Frc consts  --      0.0518                 0.0744                 0.0920
 IR Inten    --      0.2051                 0.1277                 0.0246

                     13                     14                     15
                      A                      A                      A
 Frequencies --    288.8406               317.5094               371.8706
 Red. masses --      1.7396                 2.5636                 2.6710
 Frc consts  --      0.0855                 0.1523                 0.2176
 IR Inten    --      0.6853                 0.2686                 1.2137

                     16                     17                     18
                      A                      A                      A
 Frequencies --    391.7250               418.5941               435.8804
 Red. masses --      2.8658                 2.4447                 2.4393
 Frc consts  --      0.2591                 0.2524                 0.2731
 IR Inten    --      0.5112                 0.1752                 0.3036

                     19                     20                     21
                      A                      A                      A
 Frequencies --    441.3415               499.8767               525.7292
 Red. masses --      1.9568                 2.5212                 2.7375
 Frc consts  --      0.2246                 0.3712                 0.4458
 IR Inten    --      0.9733                 1.3928                 8.2598

                     22                     23                     24
                      A                      A                      A
 Frequencies --    555.7955               622.6636               745.8409
 Red. masses --      2.8749                 3.8549                 1.1853
 Frc consts  --      0.5233                 0.8806                 0.3885
 IR Inten    --      5.8106                 0.8696                 4.5962

                     25                     26                     27
                      A                      A                      A
 Frequencies --    774.2251               807.0033               837.8862
 Red. masses --      2.8894                 1.5848                 2.4867
 Frc consts  --      1.0204                 0.6081                 1.0286
 IR Inten    --      0.1557                 2.1008                 2.3960

                     28                     29                     30
                      A                      A                      A
 Frequencies --    852.5816               875.7612               894.4492
 Red. masses --      1.7857                 1.8487                 2.3925
 Frc consts  --      0.7648                 0.8354                 1.1277
 IR Inten    --      0.1203                 1.2472                 0.6134

                     31                     32                     33
                      A                      A                      A
 Frequencies --    908.4318               927.4902               943.1611
 Red. masses --      1.6895                 1.7292                 1.8127
 Frc consts  --      0.8215                 0.8764                 0.9500
 IR Inten    --      2.5009                 1.1506                 0.2281

                     34                     35                     36
                      A                      A                      A
 Frequencies --    957.3100               972.2275               996.8937
 Red. masses --      1.5077                 1.6478                 1.9603
 Frc consts  --      0.8141                 0.9177                 1.1478
 IR Inten    --      0.6089                 1.8745                 1.6150

                     37                     38                     39
                      A                      A                      A
 Frequencies --   1035.2978              1044.6490              1061.3709
 Red. masses --      1.3222                 2.4464                 1.8632
 Frc consts  --      0.8350                 1.5730                 1.2366
 IR Inten    --      0.4098                 0.0705                 0.9039

                     40                     41                     42
                      A                      A                      A
 Frequencies --   1065.6951              1098.5235              1105.7093
 Red. masses --      1.8408                 1.8654                 1.7777
 Frc consts  --      1.2317                 1.3263                 1.2806
 IR Inten    --      4.4633                 4.4349                 3.1976

                     43                     44                     45
                      A                      A                      A
 Frequencies --   1118.7726              1164.7680              1179.2662
 Red. masses --      1.6726                 1.9357                 1.9041
 Frc consts  --      1.2335                 1.5473                 1.5601
 IR Inten    --      7.1016                 0.7577                 1.2960

                     46                     47                     48
                      A                      A                      A
 Frequencies --   1204.2657              1234.6577              1256.1803
 Red. masses --      1.8741                 1.5321                 1.9219
 Frc consts  --      1.6013                 1.3761                 1.7868
 IR Inten    --      1.5853                 0.2181                52.5972

                     49                     50                     51
                      A                      A                      A
 Frequencies --   1270.0104              1277.8275              1302.9237
 Red. masses --      1.9609                 1.3549                 1.5648
 Frc consts  --      1.8634                 1.3035                 1.5652
 IR Inten    --      4.0099                 1.9660                27.1343

                     52                     53                     54
                      A                      A                      A
 Frequencies --   1306.7200              1326.2601              1336.3085
 Red. masses --      1.7689                 1.3068                 1.5009
 Frc consts  --      1.7796                 1.3543                 1.5792
 IR Inten    --     11.8192                 1.0769                 2.9412

                     55                     56                     57
                      A                      A                      A
 Frequencies --   1340.3804              1348.3753              1358.7342
 Red. masses --      1.2462                 1.4662                 1.1981
 Frc consts  --      1.3191                 1.5706                 1.3032
 IR Inten    --      4.0128                 6.2379                 6.1848

                     58                     59                     60
                      A                      A                      A
 Frequencies --   1392.7324              1399.7146              1416.4710
 Red. masses --      1.3836                 1.3997                 1.5171
 Frc consts  --      1.5812                 1.6157                 1.7934
 IR Inten    --      8.4906                 6.7845                 0.7328

                     61                     62                     63
                      A                      A                      A
 Frequencies --   1422.7941              1431.3760              1441.4953
 Red. masses --      1.5152                 1.2434                 1.2365
 Frc consts  --      1.8072                 1.5009                 1.5138
 IR Inten    --      0.9628                 7.1581                 1.2300

                     64                     65                     66
                      A                      A                      A
 Frequencies --   1451.3831              1490.2371              1496.3198
 Red. masses --      1.2214                 1.0992                 1.0879
 Frc consts  --      1.5159                 1.4382                 1.4351
 IR Inten    --      4.3692                 5.2877                 4.0762

                     67                     68                     69
                      A                      A                      A
 Frequencies --   1508.3562              1513.5316              1517.2293
 Red. masses --      1.0812                 1.0678                 1.0522
 Frc consts  --      1.4494                 1.4412                 1.4271
 IR Inten    --      1.6677                 0.5763                 0.6196

                     70                     71                     72
                      A                      A                      A
 Frequencies --   1518.7961              1525.9831              1526.6897
 Red. masses --      1.0677                 1.0707                 1.0709
 Frc consts  --      1.4511                 1.4691                 1.4706
 IR Inten    --      0.2476                 3.4672                 5.8101

                     73                     74                     75
                      A                      A                      A
 Frequencies --   1529.8901              1534.5832              1539.5713
 Red. masses --      1.0412                 1.0575                 1.0548
 Frc consts  --      1.4358                 1.4672                 1.4730
 IR Inten    --      6.0932                 3.7894                 6.4870

                     76                     77                     78
                      A                      A                      A
 Frequencies --   1540.5046              1813.5128              3006.9635
 Red. masses --      1.0821                10.9103                 1.0629
 Frc consts  --      1.5131                21.1412                 5.6624
 IR Inten    --      3.1073               188.1143                 4.9932

                     79                     80                     81
                      A                      A                      A
 Frequencies --   3008.1453              3012.5157              3022.1373
 Red. masses --      1.0691                 1.0621                 1.0661
 Frc consts  --      5.7001                 5.6793                 5.7371
 IR Inten    --      3.6690                29.7941                17.4139

                     82                     83                     84
                      A                      A                      A
 Frequencies --   3024.2977              3029.2801              3035.8539
 Red. masses --      1.0622                 1.0650                 1.0509
 Frc consts  --      5.7238                 5.7580                 5.7068
 IR Inten    --     13.6286                39.6546                11.9644

                     85                     86                     87
                      A                      A                      A
 Frequencies --   3038.0325              3041.7270              3045.5876
 Red. masses --      1.0671                 1.0375                 1.0972
 Frc consts  --      5.8027                 5.6555                 5.9962
 IR Inten    --     26.5312                45.1118                15.8138

                     88                     89                     90
                      A                      A                      A
 Frequencies --   3046.4265              3052.9657              3065.0815
 Red. masses --      1.0394                 1.0957                 1.0953
 Frc consts  --      5.6834                 6.0168                 6.0627
 IR Inten    --      9.3376                 4.2349                83.0423

                     91                     92                     93
                      A                      A                      A
 Frequencies --   3071.9022              3103.0192              3104.4529
 Red. masses --      1.1034                 1.1018                 1.1010
 Frc consts  --      6.1347                 6.2507                 6.2520
 IR Inten    --     58.7994                16.2951                 5.3653

                     94                     95                     96
                      A                      A                      A
 Frequencies --   3106.8167              3107.1129              3111.8394
 Red. masses --      1.1027                 1.0994                 1.1000
 Frc consts  --      6.2710                 6.2533                 6.2759
 IR Inten    --     56.6531                29.7486                65.6326

                     97                     98                     99
                      A                      A                      A
 Frequencies --   3112.2151              3118.2667              3122.3241
 Red. masses --      1.1018                 1.1008                 1.0928
 Frc consts  --      6.2877                 6.3065                 6.2768
 IR Inten    --     42.6849                30.4308                24.8765

 - Thermochemistry -
 -------------------
 Temperature   298.150 Kelvin.  Pressure   1.00000 Atm.
 Atom     1 has atomic number  8 and mass  15.99491

 Molecular mass:   182.16707 amu.
 Principal axes and moments of inertia in atomic units:
                           1         2         3
     Eigenvalues --  1449.025494460.621515052.91892
           X            0.99985   0.01747   0.00107
           Y           -0.01747   0.99985  -0.00177
           Z           -0.00110   0.00175   1.00000
 This molecule is an asymmetric top.
 Rotational symmetry number  1.
 Warning -- assumption of classical behavior for rotation
           may cause significant error
 Rotational temperatures (Kelvin)      0.05977     0.01942     0.01714
 Rotational constants (GHZ):           1.24549     0.40459     0.35717
 Zero-point vibrational energy     844448.8 (Joules/Mol)
                                  201.82812 (Kcal/Mol)
 Warning -- explicit consideration of  22 degrees of freedom as
           vibrations may cause significant error
 Vibrational temperatures:     44.55    84.81   110.89   126.69   163.66
          (Kelvin)            230.26   260.95   323.16   347.38   366.61
                              388.42   405.58   415.58   456.83   535.04
                              563.60   602.26   627.13   634.99   719.21
                              756.41   799.67   895.87  1073.10  1113.94
                             1161.10  1205.53  1226.67  1260.03  1286.91
                             1307.03  1334.45  1357.00  1377.36  1398.82
                             1434.31  1489.56  1503.02  1527.08  1533.30
                             1580.53  1590.87  1609.66  1675.84  1696.70
                             1732.67  1776.40  1807.36  1827.26  1838.51
                             1874.62  1880.08  1908.19  1922.65  1928.51
                             1940.01  1954.92  2003.83  2013.88  2037.99
                             2047.08  2059.43  2073.99  2088.22  2144.12
                             2152.87  2170.19  2177.63  2182.95  2185.21
                             2195.55  2196.57  2201.17  2207.92  2215.10
                             2216.44  2609.24  4326.35  4328.05  4334.34
                             4348.18  4351.29  4358.46  4367.92  4371.05
                             4376.37  4381.92  4383.13  4392.54  4409.97
                             4419.78  4464.55  4466.62  4470.02  4470.44
                             4477.24  4477.78  4486.49  4492.33

 Zero-point correction=                           0.321634 (Hartree/Particle)
 Thermal correction to Energy=                    0.336361
 Thermal correction to Enthalpy=                  0.337306
 Thermal correction to Gibbs Free Energy=         0.279958
 Sum of electronic and zero-point Energies=           -545.450700
 Sum of electronic and thermal Energies=              -545.435972
 Sum of electronic and thermal Enthalpies=            -545.435028
 Sum of electronic and thermal Free Energies=         -545.492375

                     E (Thermal)             CV                S
                      KCal/Mol        Cal/Mol-Kelvin    Cal/Mol-Kelvin
 Total                  211.070             56.237            120.698
 Electronic               0.000              0.000              0.000
 Translational            0.889              2.981             41.506
 Rotational               0.889              2.981             31.857
 Vibrational            209.293             50.276             47.334
 Vibration     1          0.594              1.984              5.767
 Vibration     2          0.596              1.974              4.492
 Vibration     3          0.599              1.964              3.964
 Vibration     4          0.601              1.958              3.703
 Vibration     5          0.607              1.938              3.204
 Vibration     6          0.622              1.891              2.549
 Vibration     7          0.630              1.865              2.314
 Vibration     8          0.649              1.804              1.922
 Vibration     9          0.658              1.777              1.792
 Vibration    10          0.665              1.755              1.697
 Vibration    11          0.674              1.728              1.596
 Vibration    12          0.681              1.707              1.522
 Vibration    13          0.685              1.694              1.481
 Vibration    14          0.704              1.640              1.323
 Vibration    15          0.744              1.530              1.072
 Vibration    16          0.759              1.488              0.994
 Vibration    17          0.781              1.430              0.897
 Vibration    18          0.796              1.392              0.840
 Vibration    19          0.801              1.380              0.822
 Vibration    20          0.855              1.250              0.658
 Vibration    21          0.881              1.193              0.597
 Vibration    22          0.911              1.127              0.532

 Normal termination of Gaussian 16 at Sat Feb 24 02:56:37 2024.
