 Gaussian 16, Revision A.03,
 Gaussian 16:  EM64M-G16RevA.03 25-Dec-2016

 ---------------------
 # freq b3lyp/6-31g(d)
 ---------------------

 ---------
 good luck
 ---------
 Symbolic Z-matrix:
 Charge =  0 Multiplicity = 1

                         Standard orientation:
 ---------------------------------------------------------------------
 Center     Atomic      Atomic             Coordinates (Angstroms)
 Number     Number       Type             X           Y           Z
 ---------------------------------------------------------------------
      1          8           0       -1.694816    2.761417    0.245417
      2          6           0       -1.471179    1.664510   -0.232440
      3          6           0       -2.577594    0.678579   -0.576336
      4          6           0       -2.344732   -0.715128    0.069423
      5          6           0       -2.534312   -0.615400    1.596929
      6          6           0       -3.370785   -1.713185   -0.494915
      7          6           0       -0.915648   -1.196577   -0.283853
      8          6           0        0.213039   -0.218887    0.095983
      9          6           0        1.587688   -0.781134   -0.313572
     10          6           0        2.797343    0.031817    0.168411
     11          6           0        4.140439   -0.624106   -0.179924
     12          6           0        5.349309    0.186841    0.297723
     13          6           0       -0.059211    1.173632   -0.521453
     14          1           0       -3.537807    1.106750   -0.270795
     15          1           0       -2.594688    0.560983   -1.670854
     16          1           0       -1.878011    0.133561    2.053045
     17          1           0       -2.329866   -1.579636    2.078135
     18          1           0       -3.565342   -0.331949    1.839104
     19          1           0       -3.264124   -1.822548   -1.581151
     20          1           0       -3.242181   -2.704855   -0.043703
     21          1           0       -4.396284   -1.383209   -0.289247
     22          1           0       -0.734506   -2.166220    0.200127
     23          1           0       -0.867068   -1.381503   -1.368445
     24          1           0        0.218347   -0.103142    1.189661
     25          1           0        1.623832   -0.875881   -1.409823
     26          1           0        1.671959   -1.804251    0.081497
     27          1           0        2.772089    1.040676   -0.265528
     28          1           0        2.733079    0.167223    1.258528
     29          1           0        4.202109   -0.766755   -1.268280
     30          1           0        4.176954   -1.630703    0.260480
     31          1           0        6.291570   -0.307727    0.035749
     32          1           0        5.333437    0.318042    1.386707
     33          1           0        5.360533    1.186077   -0.154725
     34          1           0        0.644034    1.930442   -0.164475
     35          1           0        0.054326    1.097516   -1.615198
 ---------------------------------------------------------------------

 SCF Done:  E(RB3LYP) =  -545.773583736     A.U. after   13 cycles

 The electronic state is 1-A.
 Alpha  occ. eigenvalues --  -19.13034 -10.26615 -10.20671 -10.19693 -10.18644
 Alpha  occ. eigenvalues --  -10.18558 -10.18519 -10.18387 -10.18159 -10.18074
 Alpha  occ. eigenvalues --  -10.17839 -10.17681 -10.17377  -1.02892  -0.84757
 Alpha  occ. eigenvalues --   -0.80637  -0.77619  -0.73695  -0.70876  -0.68907
 Alpha  occ. eigenvalues --   -0.68620  -0.63989  -0.58407  -0.57340  -0.55314
 Alpha  occ. eigenvalues --   -0.52259  -0.48090  -0.46820  -0.45814  -0.45477
 Alpha  occ. eigenvalues --   -0.44122  -0.43620  -0.42010  -0.41572  -0.40791
 Alpha  occ. eigenvalues --   -0.40010  -0.38696  -0.38229  -0.37775  -0.36585
 Alpha  occ. eigenvalues --   -0.35697  -0.35431  -0.35272  -0.34395  -0.33337
 Alpha  occ. eigenvalues --   -0.33001  -0.32403  -0.31783  -0.31143  -0.29986
 Alpha  occ. eigenvalues --   -0.23241
 Alpha virt. eigenvalues --   -0.00993   0.07390   0.09115   0.10105   0.10846
 Alpha virt. eigenvalues --    0.11760   0.12491   0.13229   0.13991   0.14154
 Alpha virt. eigenvalues --    0.14969   0.15500   0.15917   0.16633   0.17392

 Mulliken charges:
               1
     1  O   -0.451673
     2  C    0.445371
     3  C   -0.339209
     4  C    0.080058
     5  C   -0.454623
     6  C   -0.444830
     7  C   -0.265456
     8  C   -0.098693
     9  C   -0.255275
    10  C   -0.255362
    11  C   -0.247874
    12  C   -0.442109
    13  C   -0.348779
    14  H    0.155970
    15  H    0.146044
    16  H    0.155010
    17  H    0.141022
    18  H    0.147240
    19  H    0.138660
    20  H    0.141915
    21  H    0.143869
    22  H    0.131331
    23  H    0.123779
    24  H    0.133104
    25  H    0.125249
    26  H    0.129057
    27  H    0.136035
    28  H    0.129737
    29  H    0.130846
    30  H    0.130649
    31  H    0.142776
    32  H    0.142647
    33  H    0.142881
    34  H    0.164835
    35  H    0.145799
 Sum of Mulliken charges =  -0.00000

 Dipole moment (field-independent basis, Debye):
    X=              0.7052    Y=             -2.8564    Z=             -0.8723  Tot=              3.0688
 Quadrupole moment (field-independent basis, Debye-Ang):
   XX=            -82.5528   YY=            -93.3227   ZZ=            -81.4138
   XY=              5.4592   XZ=              1.2918   YZ=             -2.7235

  Exact polarizability: 149.188   1.225 122.839  -0.695   2.294 107.427
 Approx polarizability: 171.018  -3.911 183.682  -2.175   6.969 168.091

                      1                      2                      3
                      A                      A                      A
 Frequencies --     45.9728                60.2617                76.0469
 Red. masses --      2.5081                 1.9775                 3.0548
 Frc consts  --      0.0031                 0.0042                 0.0104
 IR Inten    --      0.0099                 0.4106                 0.5470

                      4                      5                      6
                      A                      A                      A
 Frequencies --     87.7116               117.6623               126.3158
 Red. masses --      4.3794                 2.6580                 2.4876
 Frc consts  --      0.0199                 0.0217                 0.0234
 IR Inten    --      2.6546                 0.5994                 0.1354

                      7                      8                      9
                      A                      A                      A
 Frequencies --    177.6905               217.6694               234.0350
 Red. masses --      2.1600                 1.9094                 1.2133
 Frc consts  --      0.0402                 0.0533                 0.0392
 IR Inten    --      0.0865                 0.1365                 0.0529

                     10                     11                     12
                      A                      A                      A
 Frequencies --    244.9839               253.1938               265.0757
 Red. masses --      1.7259                 1.6607                 1.4596
 Frc consts  --      0.0610                 0.0627                 0.0604
 IR Inten    --      0.0927                 0.0595                 0.3633

                     13                     14                     15
                      A                      A                      A
 Frequencies --    288.2168               317.1976               377.6117
 Red. masses --      1.6501                 2.5534                 2.8081
 Frc consts  --      0.0808                 0.1514                 0.2359
 IR Inten    --      0.5733                 0.3105                 0.7803

                     16                     17                     18
                      A                      A                      A
 Frequencies --    389.3803               400.4178               435.3302
 Red. masses --      2.7474                 2.5956                 1.8187
 Frc consts  --      0.2454                 0.2452                 0.2031
 IR Inten    --      0.3296                 0.5347                 1.2472

                     19                     20                     21
                      A                      A                      A
 Frequencies --    461.4179               483.7835               534.0367
 Red. masses --      2.6795                 2.3653                 3.0407
 Frc consts  --      0.3361                 0.3262                 0.5109
 IR Inten    --      0.4613                 0.2839                10.2503

                     22                     23                     24
                      A                      A                      A
 Frequencies --    546.7524               626.9127               741.6928
 Red. masses --      3.0990                 4.1757                 1.0873
 Frc consts  --      0.5458                 0.9669                 0.3524
 IR Inten    --      4.6643                 0.9692                 2.9666

                     25                     26                     27
                      A                      A                      A
 Frequencies --    775.5950               794.8310               846.7788
 Red. masses --      2.6032                 1.2953                 2.5027
 Frc consts  --      0.9226                 0.4821                 1.0573
 IR Inten    --      0.0707                 1.3738                 1.9324

                     28                     29                     30
                      A                      A                      A
 Frequencies --    856.1089               881.3405               904.4663
 Red. masses --      1.8286                 2.2655                 1.8890
 Frc consts  --      0.7896                 1.0368                 0.9105
 IR Inten    --      0.9030                 0.5442                 2.8697

                     31                     32                     33
                      A                      A                      A
 Frequencies --    914.2653               927.2680               943.2587
 Red. masses --      1.7986                 1.7627                 1.8178
 Frc consts  --      0.8858                 0.8930                 0.9529
 IR Inten    --      3.1754                 0.7730                 0.1952

                     34                     35                     36
                      A                      A                      A
 Frequencies --    957.4422               970.0007              1016.8207
 Red. masses --      1.5052                 1.5879                 2.5473
 Frc consts  --      0.8130                 0.8803                 1.5517
 IR Inten    --      0.2522                 1.7724                 0.1911

                     37                     38                     39
                      A                      A                      A
 Frequencies --   1034.9039              1042.2687              1066.7663
 Red. masses --      1.3042                 2.1061                 1.9697
 Frc consts  --      0.8230                 1.3480                 1.3206
 IR Inten    --      0.3657                 0.2184                 3.9030

                     40                     41                     42
                      A                      A                      A
 Frequencies --   1071.4751              1091.5285              1104.7034
 Red. masses --      2.0779                 2.3058                 1.5052
 Frc consts  --      1.4055                 1.6186                 1.0823
 IR Inten    --      2.2236                 1.2560                 2.8993

                     43                     44                     45
                      A                      A                      A
 Frequencies --   1120.1112              1156.5839              1185.0357
 Red. masses --      1.5703                 2.2927                 1.7435
 Frc consts  --      1.1608                 1.8070                 1.4426
 IR Inten    --      9.7130                 0.4639                 1.1887

                     46                     47                     48
                      A                      A                      A
 Frequencies --   1207.4144              1243.2441              1255.1016
 Red. masses --      2.0851                 1.6054                 1.9185
 Frc consts  --      1.7910                 1.4620                 1.7806
 IR Inten    --      2.0939                 4.6049                47.4822

                     49                     50                     51
                      A                      A                      A
 Frequencies --   1265.3372              1286.2927              1299.8365
 Red. masses --      1.8371                 1.2837                 1.6977
 Frc consts  --      1.7329                 1.2514                 1.6900
 IR Inten    --      4.8146                 2.6822                 7.0528

                     52                     53                     54
                      A                      A                      A
 Frequencies --   1306.6260              1323.7140              1334.7755
 Red. masses --      1.6622                 1.3732                 1.4395
 Frc consts  --      1.6720                 1.4177                 1.5111
 IR Inten    --     29.4156                 1.3666                 0.9111

                     55                     56                     57
                      A                      A                      A
 Frequencies --   1340.7411              1347.5638              1354.4165
 Red. masses --      1.2825                 1.1858                 1.3109
 Frc consts  --      1.3583                 1.2687                 1.4168
 IR Inten    --      8.3987                 2.3506                 5.5723

                     58                     59                     60
                      A                      A                      A
 Frequencies --   1389.5818              1395.7522              1411.0597
 Red. masses --      1.4045                 1.3773                 1.5359
 Frc consts  --      1.5978                 1.5809                 1.8018
 IR Inten    --      1.5388                 6.4122                 5.5626

                     61                     62                     63
                      A                      A                      A
 Frequencies --   1424.7083              1431.2109              1441.9118
 Red. masses --      1.5803                 1.2461                 1.2458
 Frc consts  --      1.8899                 1.5038                 1.5261
 IR Inten    --      1.6876                 6.3854                 1.2088

                     64                     65                     66
                      A                      A                      A
 Frequencies --   1451.4759              1490.5468              1496.9361
 Red. masses --      1.2221                 1.0988                 1.0873
 Frc consts  --      1.5170                 1.4384                 1.4356
 IR Inten    --      4.2166                 5.1121                 3.8205

                     67                     68                     69
                      A                      A                      A
 Frequencies --   1509.0102              1513.5817              1516.9742
 Red. masses --      1.0789                 1.0702                 1.0585
 Frc consts  --      1.4474                 1.4445                 1.4352
 IR Inten    --      0.5177                 0.0378                 0.4333

                     70                     71                     72
                      A                      A                      A
 Frequencies --   1517.7003              1525.9795              1529.7000
 Red. masses --      1.0599                 1.0667                 1.0679
 Frc consts  --      1.4384                 1.4635                 1.4723
 IR Inten    --      0.6159                 5.4697                 3.4318

                     73                     74                     75
                      A                      A                      A
 Frequencies --   1529.9117              1534.6608              1539.4980
 Red. masses --      1.0452                 1.0574                 1.0544
 Frc consts  --      1.4414                 1.4673                 1.4724
 IR Inten    --      3.8810                 3.5325                 5.8394

                     76                     77                     78
                      A                      A                      A
 Frequencies --   1541.9085              1813.8756              3005.8663
 Red. masses --      1.0874                10.9152                 1.0677
 Frc consts  --      1.5233                21.1591                 5.6835
 IR Inten    --      3.6403               193.5427                 3.0721

                     79                     80                     81
                      A                      A                      A
 Frequencies --   3007.0403              3009.9393              3017.9229
 Red. masses --      1.0654                 1.0644                 1.0626
 Frc consts  --      5.6760                 5.6815                 5.7022
 IR Inten    --      0.8738                17.4741                 0.6711

                     82                     83                     84
                      A                      A                      A
 Frequencies --   3021.0484              3025.6690              3029.0424
 Red. masses --      1.0686                 1.0680                 1.0681
 Frc consts  --      5.7463                 5.7606                 5.7742
 IR Inten    --      6.4406                12.5212                79.6992

                     85                     86                     87
                      A                      A                      A
 Frequencies --   3036.7758              3040.1416              3042.2729
 Red. masses --      1.0381                 1.0854                 1.0431
 Frc consts  --      5.6403                 5.9108                 5.6881
 IR Inten    --     40.0548                13.6030                45.6197

                     88                     89                     90
                      A                      A                      A
 Frequencies --   3046.2171              3048.6335              3059.8223
 Red. masses --      1.0388                 1.1015                 1.0981
 Frc consts  --      5.6792                 6.0317                 6.0575
 IR Inten    --     11.7942                 0.4807                27.3445

                     91                     92                     93
                      A                      A                      A
 Frequencies --   3074.2562              3103.0036              3104.4934
 Red. masses --      1.1040                 1.1017                 1.1013
 Frc consts  --      6.1474                 6.2500                 6.2535
 IR Inten    --     81.4337                16.6629                 5.0023

                     94                     95                     96
                      A                      A                      A
 Frequencies --   3106.8102              3107.1226              3111.7267
 Red. masses --      1.1022                 1.0998                 1.1017
 Frc consts  --      6.2679                 6.2557                 6.2853
 IR Inten    --     27.5338                62.3355                80.1533

                     97                     98                     99
                      A                      A                      A
 Frequencies --   3111.8214              3117.9636              3125.8329
 Red. masses --      1.1001                 1.1010                 1.0924
 Frc consts  --      6.2765                 6.3062                 6.2889
 IR Inten    --     31.9532                32.8003                20.3763

 - Thermochemistry -
 -------------------
 Temperature   298.150 Kelvin.  Pressure   1.00000 Atm.
 Atom     1 has atomic number  8 and mass  15.99491

 Molecular mass:   182.16707 amu.
 Principal axes and moments of inertia in atomic units:
                           1         2         3
     Eigenvalues --  1315.781745105.439135868.76766
           X            0.99985   0.01743   0.00062
           Y           -0.01743   0.99985  -0.00183
           Z           -0.00065   0.00182   1.00000
 This molecule is an asymmetric top.
 Rotational symmetry number  1.
 Warning -- assumption of classical behavior for rotation
           may cause significant error
 Rotational temperatures (Kelvin)      0.06583     0.01697     0.01476
 Rotational constants (GHZ):           1.37161     0.35349     0.30752
 Zero-point vibrational energy     843937.9 (Joules/Mol)
                                  201.70599 (Kcal/Mol)
 Warning -- explicit consideration of  22 degrees of freedom as
           vibrations may cause significant error
 Vibrational temperatures:     66.14    86.70   109.41   126.20   169.29
          (Kelvin)            181.74   255.66   313.18   336.72   352.48
                              364.29   381.38   414.68   456.38   543.30
                              560.23   576.11   626.34   663.88   696.06
                              768.36   786.65   901.99  1067.13  1115.91
                             1143.58  1218.33  1231.75  1268.05  1301.33
                             1315.42  1334.13  1357.14  1377.55  1395.61
                             1462.98  1489.00  1499.59  1534.84  1541.61
                             1570.47  1589.42  1611.59  1664.07  1705.00
                             1737.20  1788.75  1805.81  1820.54  1850.69
                             1870.17  1879.94  1904.53  1920.44  1929.03
                             1938.84  1948.70  1999.30  2008.18  2030.20
                             2049.84  2059.19  2074.59  2088.35  2144.56
                             2153.76  2171.13  2177.71  2182.59  2183.63
                             2195.54  2200.90  2201.20  2208.03  2214.99
                             2218.46  2609.76  4324.77  4326.46  4330.63
                             4342.12  4346.61  4353.26  4358.12  4369.24
                             4374.09  4377.15  4382.83  4386.30  4402.40
                             4423.17  4464.53  4466.67  4470.01  4470.46
                             4477.08  4477.22  4486.05  4497.38

 Zero-point correction=                           0.321439 (Hartree/Particle)
 Thermal correction to Energy=                    0.336276
 Thermal correction to Enthalpy=                  0.337220
 Thermal correction to Gibbs Free Energy=         0.279761
 Sum of electronic and zero-point Energies=           -545.452145
 Sum of electronic and thermal Energies=              -545.437308
 Sum of electronic and thermal Enthalpies=            -545.436364
 Sum of electronic and thermal Free Energies=         -545.493823

                     E (Thermal)             CV                S
                      KCal/Mol        Cal/Mol-Kelvin    Cal/Mol-Kelvin
 Total                  211.016             56.345            120.933
 Electronic               0.000              0.000              0.000
 Translational            0.889              2.981             41.506
 Rotational               0.889              2.981             32.044
 Vibrational            209.239             50.383             47.383
 Vibration     1          0.595              1.979              4.984
 Vibration     2          0.597              1.973              4.449
 Vibration     3          0.599              1.965              3.990
 Vibration     4          0.601              1.958              3.710
 Vibration     5          0.608              1.935              3.138
 Vibration     6          0.611              1.927              3.001
 Vibration     7          0.628              1.870              2.353
 Vibration     8          0.646              1.814              1.978
 Vibration     9          0.654              1.789              1.848
 Vibration    10          0.660              1.771              1.766
 Vibration    11          0.664              1.757              1.708
 Vibration    12          0.671              1.737              1.628
 Vibration    13          0.685              1.696              1.484
 Vibration    14          0.704              1.641              1.325
 Vibration    15          0.748              1.518              1.049
 Vibration    16          0.757              1.493              1.003
 Vibration    17          0.766              1.469              0.961
 Vibration    18          0.796              1.393              0.841
 Vibration    19          0.819              1.336              0.762
 Vibration    20          0.840              1.286              0.700
 Vibration    21          0.889              1.175              0.578
 Vibration    22          0.902              1.147              0.551

 Normal termination of Gaussian 16 at Sat Feb 24 03:04:16 2024.
