 Gaussian 16, Revision A.03,
 Gaussian 16:  EM64M-G16RevA.03 25-Dec-2016

 ---------------------
 # freq b3lyp/6-31g(d)
 ---------------------

 ---------
 good luck
 ---------
 Symbolic Z-matrix:
 Charge =  0 Multiplicity = 1

                         Standard orientation:
 ---------------------------------------------------------------------
 Center     Atomic      Atomic             Coordinates (Angstroms)
 Number     Number       Type             X           Y           Z
 ---------------------------------------------------------------------
      1          8           0        2.931586   -2.186533    0.572558
      2          6           0        2.226708   -1.402836   -0.036185
      3          6           0        2.725807   -0.046382   -0.510878
      4          6           0        1.809294    1.115062   -0.036399
      5          6           0        2.245550    2.418704   -0.727819
      6          6           0        1.946847    1.290481    1.489942
      7          6           0        0.344855    0.795517   -0.429935
      8          6           0       -0.178247   -0.562412    0.076047
      9          6           0       -1.618415   -0.858365   -0.385644
     10          6           0       -2.694319    0.074620    0.187912
     11          6           0       -4.117772   -0.324864   -0.224143
     12          6           0       -5.193877    0.607028    0.342203
     13          6           0        0.772504   -1.698921   -0.370937
     14          1           0        2.737748   -0.058378   -1.611645
     15          1           0        3.756004    0.090355   -0.166373
     16          1           0        2.153852    2.341211   -1.818169
     17          1           0        3.289999    2.658433   -0.494514
     18          1           0        1.627562    3.263201   -0.398415
     19          1           0        1.717646    0.371603    2.040184
     20          1           0        2.971704    1.577548    1.753170
     21          1           0        1.274489    2.077044    1.853687
     22          1           0        0.266047    0.810243   -1.528593
     23          1           0       -0.299920    1.604841   -0.064996
     24          1           0       -0.182444   -0.547107    1.175646
     25          1           0       -1.654800   -0.827256   -1.485547
     26          1           0       -1.865704   -1.892288   -0.104202
     27          1           0       -2.623871    0.078221    1.285963
     28          1           0       -2.509529    1.108875   -0.132966
     29          1           0       -4.314127   -1.354833    0.105610
     30          1           0       -4.186270   -0.339279   -1.321184
     31          1           0       -6.197364    0.294759    0.031667
     32          1           0       -5.172721    0.616715    1.438874
     33          1           0       -5.045610    1.638692    0.000103
     34          1           0        0.496698   -2.656835    0.080816
     35          1           0        0.694310   -1.809300   -1.464560
 ---------------------------------------------------------------------

 SCF Done:  E(RB3LYP) =  -545.773474424     A.U. after   13 cycles

 The electronic state is 1-A.
 Alpha  occ. eigenvalues --  -19.13007 -10.26586 -10.20692 -10.19709 -10.18661
 Alpha  occ. eigenvalues --  -10.18545 -10.18508 -10.18410 -10.18241 -10.18187
 Alpha  occ. eigenvalues --  -10.17851 -10.17682 -10.17498  -1.02862  -0.84766
 Alpha  occ. eigenvalues --   -0.80626  -0.77780  -0.73729  -0.70824  -0.68890
 Alpha  occ. eigenvalues --   -0.68548  -0.64235  -0.58522  -0.57408  -0.55305
 Alpha  occ. eigenvalues --   -0.52089  -0.48034  -0.46974  -0.45831  -0.45379
 Alpha  occ. eigenvalues --   -0.44417  -0.43369  -0.42158  -0.41478  -0.40914
 Alpha  occ. eigenvalues --   -0.40109  -0.38773  -0.38344  -0.37697  -0.36914
 Alpha  occ. eigenvalues --   -0.35913  -0.35440  -0.35014  -0.34360  -0.33129
 Alpha  occ. eigenvalues --   -0.32892  -0.32621  -0.31770  -0.30888  -0.30460
 Alpha  occ. eigenvalues --   -0.23197
 Alpha virt. eigenvalues --   -0.00943   0.07448   0.08942   0.10007   0.10654
 Alpha virt. eigenvalues --    0.11760   0.12366   0.13481   0.13944   0.14059
 Alpha virt. eigenvalues --    0.14938   0.15385   0.15799   0.16671   0.17442

 Mulliken charges:
               1
     1  O   -0.452908
     2  C    0.447227
     3  C   -0.339397
     4  C    0.078921
     5  C   -0.444843
     6  C   -0.454484
     7  C   -0.266540
     8  C   -0.099504
     9  C   -0.254535
    10  C   -0.255429
    11  C   -0.247915
    12  C   -0.442171
    13  C   -0.347709
    14  H    0.145929
    15  H    0.155802
    16  H    0.138638
    17  H    0.143992
    18  H    0.141737
    19  H    0.155162
    20  H    0.147240
    21  H    0.141208
    22  H    0.122582
    23  H    0.137363
    24  H    0.133295
    25  H    0.125403
    26  H    0.131762
    27  H    0.129098
    28  H    0.133084
    29  H    0.132338
    30  H    0.131255
    31  H    0.143523
    32  H    0.142437
    33  H    0.141307
    34  H    0.159043
    35  H    0.147091
 Sum of Mulliken charges =  -0.00000

 Dipole moment (field-independent basis, Debye):
    X=             -1.9949    Y=              2.0875    Z=             -1.2177  Tot=              3.1337
 Quadrupole moment (field-independent basis, Debye-Ang):
   XX=            -89.9835   YY=            -88.3253   ZZ=            -82.2259
   XY=              8.7688   XZ=             -3.7018   YZ=              2.7001

  Exact polarizability: 146.868  -0.467 124.084   1.988  -1.895 108.069
 Approx polarizability: 177.072  -6.392 176.014   6.749  -7.565 170.030

                      1                      2                      3
                      A                      A                      A
 Frequencies --     43.5160                59.8146                74.2301
 Red. masses --      2.6545                 1.8394                 3.0499
 Frc consts  --      0.0030                 0.0039                 0.0099
 IR Inten    --      0.8483                 0.1600                 0.1036

                      4                      5                      6
                      A                      A                      A
 Frequencies --     88.4628               113.9061               140.3135
 Red. masses --      4.4176                 2.7161                 2.5539
 Frc consts  --      0.0204                 0.0208                 0.0296
 IR Inten    --      2.5800                 0.5704                 0.1762

                      7                      8                      9
                      A                      A                      A
 Frequencies --    171.6830               223.6291               231.5707
 Red. masses --      2.1960                 1.5210                 1.3425
 Frc consts  --      0.0381                 0.0448                 0.0424
 IR Inten    --      0.2727                 0.0611                 0.2335

                     10                     11                     12
                      A                      A                      A
 Frequencies --    249.1159               252.5367               263.2718
 Red. masses --      1.2172                 2.9574                 1.4993
 Frc consts  --      0.0445                 0.1111                 0.0612
 IR Inten    --      0.0145                 0.0059                 0.6450

                     13                     14                     15
                      A                      A                      A
 Frequencies --    287.4898               317.8516               375.6252
 Red. masses --      1.6984                 2.5420                 2.7869
 Frc consts  --      0.0827                 0.1513                 0.2317
 IR Inten    --      0.8011                 0.4089                 0.0947

                     16                     17                     18
                      A                      A                      A
 Frequencies --    382.6291               422.9821               431.2850
 Red. masses --      2.5443                 2.3485                 2.4622
 Frc consts  --      0.2195                 0.2476                 0.2698
 IR Inten    --      0.6126                 1.0424                 1.7205

                     19                     20                     21
                      A                      A                      A
 Frequencies --    455.6580               474.3812               527.7697
 Red. masses --      2.1543                 2.6286                 2.9581
 Frc consts  --      0.2635                 0.3485                 0.4855
 IR Inten    --      1.2775                 0.2251                 2.5319

                     22                     23                     24
                      A                      A                      A
 Frequencies --    544.1803               634.8000               741.0104
 Red. masses --      2.9213                 4.0900                 1.0907
 Frc consts  --      0.5097                 0.9711                 0.3529
 IR Inten    --      8.2391                 1.4089                 2.8748

                     25                     26                     27
                      A                      A                      A
 Frequencies --    780.1033               797.5800               842.5010
 Red. masses --      2.0718                 1.4572                 2.8565
 Frc consts  --      0.7429                 0.5462                 1.1946
 IR Inten    --      0.3789                 0.2489                 2.6541

                     28                     29                     30
                      A                      A                      A
 Frequencies --    855.2974               879.5940               902.5209
 Red. masses --      1.7770                 2.0624                 1.8693
 Frc consts  --      0.7659                 0.9401                 0.8971
 IR Inten    --      0.5191                 0.4444                 3.6619

                     31                     32                     33
                      A                      A                      A
 Frequencies --    911.3879               940.6947               945.4836
 Red. masses --      1.9008                 1.9420                 1.4369
 Frc consts  --      0.9302                 1.0125                 0.7568
 IR Inten    --      1.3195                 1.2916                 0.8651

                     34                     35                     36
                      A                      A                      A
 Frequencies --    957.6215               964.0083              1011.5282
 Red. masses --      1.5257                 1.8814                 2.4786
 Frc consts  --      0.8243                 1.0301                 1.4942
 IR Inten    --      0.1587                 3.8293                 0.8408

                     37                     38                     39
                      A                      A                      A
 Frequencies --   1035.6072              1040.1113              1068.1098
 Red. masses --      1.3363                 2.0640                 2.3067
 Frc consts  --      0.8444                 1.3156                 1.5505
 IR Inten    --      0.1955                 0.2799                 0.1715

                     40                     41                     42
                      A                      A                      A
 Frequencies --   1076.1558              1089.0642              1098.1627
 Red. masses --      1.8218                 1.8476                 1.7439
 Frc consts  --      1.2431                 1.2911                 1.2391
 IR Inten    --      0.0683                 3.0347                 2.2743

                     43                     44                     45
                      A                      A                      A
 Frequencies --   1122.1051              1154.9196              1189.4702
 Red. masses --      1.6184                 2.3060                 1.6271
 Frc consts  --      1.2006                 1.8122                 1.3563
 IR Inten    --      6.9861                 3.6813                 1.6245

                     46                     47                     48
                      A                      A                      A
 Frequencies --   1209.1460              1241.5521              1256.8282
 Red. masses --      2.1555                 1.5966                 1.9381
 Frc consts  --      1.8567                 1.4500                 1.8037
 IR Inten    --      1.8975                 5.3342                50.0345

                     49                     50                     51
                      A                      A                      A
 Frequencies --   1260.5477              1284.7300              1299.3543
 Red. masses --      1.7759                 1.3469                 1.7115
 Frc consts  --      1.6626                 1.3098                 1.7025
 IR Inten    --      2.8551                 2.0853                 4.8641

                     52                     53                     54
                      A                      A                      A
 Frequencies --   1308.9865              1321.4025              1331.9861
 Red. masses --      1.6334                 1.3738                 1.3923
 Frc consts  --      1.6490                 1.4133                 1.4554
 IR Inten    --     31.9544                 3.4034                 2.2413

                     55                     56                     57
                      A                      A                      A
 Frequencies --   1346.4809              1347.9297              1364.5170
 Red. masses --      1.3631                 1.1286                 1.3483
 Frc consts  --      1.4560                 1.2081                 1.4791
 IR Inten    --      3.9327                 1.7859                 2.1173

                     58                     59                     60
                      A                      A                      A
 Frequencies --   1372.5142              1400.5486              1412.9152
 Red. masses --      1.3393                 1.4426                 1.5146
 Frc consts  --      1.4865                 1.6672                 1.7815
 IR Inten    --      4.5087                 5.9091                 6.1840

                     61                     62                     63
                      A                      A                      A
 Frequencies --   1424.5818              1431.2387              1441.6961
 Red. masses --      1.5676                 1.2448                 1.2460
 Frc consts  --      1.8743                 1.5024                 1.5259
 IR Inten    --      2.5619                 6.3480                 1.4753

                     64                     65                     66
                      A                      A                      A
 Frequencies --   1451.4495              1489.8990              1496.5577
 Red. masses --      1.2216                 1.0990                 1.0874
 Frc consts  --      1.5163                 1.4374                 1.4349
 IR Inten    --      4.2722                 4.6806                 3.9078

                     67                     68                     69
                      A                      A                      A
 Frequencies --   1510.8702              1514.0601              1516.6711
 Red. masses --      1.0713                 1.0802                 1.0549
 Frc consts  --      1.4408                 1.4589                 1.4297
 IR Inten    --      0.0545                 1.4903                 0.4760

                     70                     71                     72
                      A                      A                      A
 Frequencies --   1517.7958              1526.0111              1529.6849
 Red. masses --      1.0612                 1.0665                 1.0693
 Frc consts  --      1.4404                 1.4633                 1.4742
 IR Inten    --      0.9311                 5.3261                 2.0674

                     73                     74                     75
                      A                      A                      A
 Frequencies --   1529.9713              1534.6640              1539.5202
 Red. masses --      1.0441                 1.0573                 1.0549
 Frc consts  --      1.4400                 1.4672                 1.4731
 IR Inten    --      4.8353                 3.8922                 6.1558

                     76                     77                     78
                      A                      A                      A
 Frequencies --   1541.9489              1814.4010              3006.3622
 Red. masses --      1.0875                10.9240                 1.0679
 Frc consts  --      1.5234                21.1884                 5.6869
 IR Inten    --      3.6858               199.8690                10.2835

                     79                     80                     81
                      A                      A                      A
 Frequencies --   3009.2615              3009.9999              3018.4289
 Red. masses --      1.0683                 1.0634                 1.0622
 Frc consts  --      5.6997                 5.6767                 5.7017
 IR Inten    --      3.2186                 8.4496                 2.3389

                     82                     83                     84
                      A                      A                      A
 Frequencies --   3021.8690              3027.4083              3030.5275
 Red. masses --      1.0681                 1.0674                 1.0675
 Frc consts  --      5.7468                 5.7640                 5.7763
 IR Inten    --      7.1123                 4.3452                92.5785

                     85                     86                     87
                      A                      A                      A
 Frequencies --   3036.7518              3040.4842              3042.5023
 Red. masses --      1.0384                 1.0886                 1.0419
 Frc consts  --      5.6419                 5.9291                 5.6824
 IR Inten    --     34.0718                13.6925                37.4952

                     88                     89                     90
                      A                      A                      A
 Frequencies --   3046.5040              3051.2554              3071.0023
 Red. masses --      1.0383                 1.1017                 1.0997
 Frc consts  --      5.6777                 6.0433                 6.1104
 IR Inten    --     15.4151                 3.0706                57.8047

                     91                     92                     93
                      A                      A                      A
 Frequencies --   3076.6276              3102.7439              3104.4796
 Red. masses --      1.0988                 1.1017                 1.1013
 Frc consts  --      6.1283                 6.2491                 6.2538
 IR Inten    --     44.6351                19.4491                 4.3815

                     94                     95                     96
                      A                      A                      A
 Frequencies --   3106.9757              3107.0563              3111.3911
 Red. masses --      1.1008                 1.1008                 1.0965
 Frc consts  --      6.2607                 6.2612                 6.2542
 IR Inten    --     47.8845                36.6888                41.1965

                     97                     98                     99
                      A                      A                      A
 Frequencies --   3112.1536              3112.3995              3118.6427
 Red. masses --      1.0988                 1.1010                 1.1009
 Frc consts  --      6.2702                 6.2838                 6.3084
 IR Inten    --     76.3007                19.7444                36.1649

 - Thermochemistry -
 -------------------
 Temperature   298.150 Kelvin.  Pressure   1.00000 Atm.
 Atom     1 has atomic number  8 and mass  15.99491

 Molecular mass:   182.16707 amu.
 Principal axes and moments of inertia in atomic units:
                           1         2         3
     Eigenvalues --  1429.929074884.102135740.34556
           X            0.99979   0.02031  -0.00356
           Y           -0.02025   0.99969   0.01444
           Z            0.00385  -0.01436   0.99989
 This molecule is an asymmetric top.
 Rotational symmetry number  1.
 Warning -- assumption of classical behavior for rotation
           may cause significant error
 Rotational temperatures (Kelvin)      0.06057     0.01773     0.01509
 Rotational constants (GHZ):           1.26212     0.36951     0.31440
 Zero-point vibrational energy     843995.5 (Joules/Mol)
                                  201.71976 (Kcal/Mol)
 Warning -- explicit consideration of  22 degrees of freedom as
           vibrations may cause significant error
 Vibrational temperatures:     62.61    86.06   106.80   127.28   163.89
          (Kelvin)            201.88   247.01   321.75   333.18   358.42
                              363.34   378.79   413.63   457.32   540.44
                              550.52   608.58   620.52   655.59   682.53
                              759.34   782.95   913.34  1066.15  1122.39
                             1147.54  1212.17  1230.58  1265.54  1298.53
                             1311.28  1353.45  1360.34  1377.80  1386.99
                             1455.36  1490.01  1496.49  1536.77  1548.35
                             1566.92  1580.01  1614.46  1661.67  1711.38
                             1739.69  1786.32  1808.30  1813.65  1848.44
                             1869.48  1883.34  1901.20  1916.43  1937.29
                             1939.37  1963.24  1974.74  2015.08  2032.87
                             2049.66  2059.23  2074.28  2088.31  2143.63
                             2153.21  2173.81  2178.39  2182.15  2183.77
                             2195.59  2200.88  2201.29  2208.04  2215.03
                             2218.52  2610.52  4325.48  4329.66  4330.72
                             4342.85  4347.80  4355.77  4360.25  4369.21
                             4374.58  4377.48  4383.24  4390.08  4418.49
                             4426.58  4464.16  4466.65  4470.25  4470.36
                             4476.60  4477.69  4478.05  4487.03

 Zero-point correction=                           0.321461 (Hartree/Particle)
 Thermal correction to Energy=                    0.336295
 Thermal correction to Enthalpy=                  0.337239
 Thermal correction to Gibbs Free Energy=         0.279747
 Sum of electronic and zero-point Energies=           -545.452014
 Sum of electronic and thermal Energies=              -545.437179
 Sum of electronic and thermal Enthalpies=            -545.436235
 Sum of electronic and thermal Free Energies=         -545.493728

                     E (Thermal)             CV                S
                      KCal/Mol        Cal/Mol-Kelvin    Cal/Mol-Kelvin
 Total                  211.028             56.350            121.003
 Electronic               0.000              0.000              0.000
 Translational            0.889              2.981             41.506
 Rotational               0.889              2.981             32.061
 Vibrational            209.251             50.389             47.437
 Vibration     1          0.595              1.980              5.092
 Vibration     2          0.597              1.973              4.463
 Vibration     3          0.599              1.966              4.038
 Vibration     4          0.601              1.957              3.694
 Vibration     5          0.607              1.938              3.201
 Vibration     6          0.615              1.913              2.800
 Vibration     7          0.626              1.877              2.417
 Vibration     8          0.649              1.805              1.930
 Vibration     9          0.653              1.793              1.867
 Vibration    10          0.662              1.764              1.737
 Vibration    11          0.664              1.759              1.713
 Vibration    12          0.670              1.740              1.640
 Vibration    13          0.685              1.697              1.489
 Vibration    14          0.704              1.639              1.321
 Vibration    15          0.746              1.522              1.057
 Vibration    16          0.752              1.507              1.029
 Vibration    17          0.785              1.420              0.882
 Vibration    18          0.792              1.402              0.854
 Vibration    19          0.814              1.348              0.779
 Vibration    20          0.831              1.307              0.725
 Vibration    21          0.883              1.189              0.592
 Vibration    22          0.899              1.152              0.556

 Normal termination of Gaussian 16 at Sat Feb 24 03:00:28 2024.
