 Gaussian 16, Revision A.03,
 Gaussian 16:  EM64M-G16RevA.03 25-Dec-2016

 ---------------------
 # freq b3lyp/6-31g(d)
 ---------------------

 ---------
 good luck
 ---------
 Symbolic Z-matrix:
 Charge =  0 Multiplicity = 1

                         Standard orientation:
 ---------------------------------------------------------------------
 Center     Atomic      Atomic             Coordinates (Angstroms)
 Number     Number       Type             X           Y           Z
 ---------------------------------------------------------------------
      1          8           0       -2.173346   -0.971938   -0.422808
      2          6           0       -1.285667   -0.324584    0.099845
      3          6           0       -0.175119   -0.967483    0.922650
      4          6           0        1.233148   -0.517664    0.456357
      5          6           0        1.607694   -1.164649   -0.886699
      6          6           0        1.305706    1.024108    0.416388
      7          6           0        0.208591    1.649678   -0.458827
      8          6           0       -1.198510    1.192201   -0.018877
      9          1           0       -0.317907   -0.658706    1.969436
     10          1           0       -0.290388   -2.054912    0.876590
     11          1           0        1.957029   -0.868882    1.204266
     12          1           0        1.622527   -2.257091   -0.800064
     13          1           0        2.602282   -0.839776   -1.214620
     14          1           0        0.894936   -0.913902   -1.681012
     15          1           0        2.294409    1.338357    0.057974
     16          1           0        1.208784    1.410797    1.441479
     17          1           0        0.364623    1.374786   -1.509652
     18          1           0        0.269036    2.743753   -0.415957
     19          1           0       -1.977877    1.536100   -0.705210
     20          1           0       -1.415739    1.615340    0.974211
 ---------------------------------------------------------------------

 SCF Done:  E(RB3LYP) =  -349.204059696     A.U. after   13 cycles

 The electronic state is 1-A.
 Alpha  occ. eigenvalues --  -19.13142 -10.26744 -10.20048 -10.19353 -10.18982
 Alpha  occ. eigenvalues --  -10.18923 -10.18807 -10.17883  -1.03005  -0.83622
 Alpha  occ. eigenvalues --   -0.76717  -0.72731  -0.68783  -0.61767  -0.57443
 Alpha  occ. eigenvalues --   -0.52189  -0.47457  -0.45702  -0.45248  -0.44385
 Alpha  occ. eigenvalues --   -0.42002  -0.41177  -0.39702  -0.38187  -0.36701
 Alpha  occ. eigenvalues --   -0.35524  -0.34918  -0.32413  -0.32239  -0.31776
 Alpha  occ. eigenvalues --   -0.23345
 Alpha virt. eigenvalues --   -0.01140   0.07869   0.10563   0.12118   0.13490
 Alpha virt. eigenvalues --    0.13888   0.14600   0.16062   0.16580   0.17871
 Alpha virt. eigenvalues --    0.18343   0.19183   0.20063   0.20912   0.22416

 Mulliken charges:
               1
     1  O   -0.447740
     2  C    0.450386
     3  C   -0.343529
     4  C   -0.086868
     5  C   -0.451400
     6  C   -0.264238
     7  C   -0.276037
     8  C   -0.341281
     9  H    0.149931
    10  H    0.158938
    11  H    0.130019
    12  H    0.150287
    13  H    0.144068
    14  H    0.154043
    15  H    0.137201
    16  H    0.130394
    17  H    0.149180
    18  H    0.143040
    19  H    0.162046
    20  H    0.151560
 Sum of Mulliken charges =  -0.00000

 Dipole moment (field-independent basis, Debye):
    X=              2.3914    Y=              1.5557    Z=              1.1296  Tot=              3.0684
 Quadrupole moment (field-independent basis, Debye-Ang):
   XX=            -55.5618   YY=            -49.8152   ZZ=            -48.7262
   XY=             -4.1694   XZ=             -2.2302   YZ=             -1.1167

  Exact polarizability:  76.145   1.197  74.708   2.376   0.484  64.442
 Approx polarizability: 105.623   7.368 102.271   7.506   4.224  96.983

                      1                      2                      3
                      A                      A                      A
 Frequencies --     84.6656               126.7952               215.8853
 Red. masses --      4.6214                 2.6272                 1.1376
 Frc consts  --      0.0195                 0.0249                 0.0312
 IR Inten    --      2.7284                 0.6272                 0.3953

                      4                      5                      6
                      A                      A                      A
 Frequencies --    260.3622               343.1650               362.5282
 Red. masses --      1.8449                 2.6192                 2.0502
 Frc consts  --      0.0737                 0.1817                 0.1588
 IR Inten    --      0.1735                 0.5103                 0.3448

                      7                      8                      9
                      A                      A                      A
 Frequencies --    425.1714               461.4329               489.5076
 Red. masses --      2.2853                 2.0295                 3.8091
 Frc consts  --      0.2434                 0.2546                 0.5378
 IR Inten    --      1.0377                 1.9515                10.1054

                     10                     11                     12
                      A                      A                      A
 Frequencies --    555.4743               673.8304               748.9532
 Red. masses --      3.1169                 2.8239                 2.5143
 Frc consts  --      0.5666                 0.7554                 0.8310
 IR Inten    --      1.5416                 2.1186                 3.0861

                     13                     14                     15
                      A                      A                      A
 Frequencies --    788.1672               828.9808               881.8861
 Red. masses --      2.3098                 1.7942                 2.3290
 Frc consts  --      0.8454                 0.7265                 1.0672
 IR Inten    --      2.3707                 0.7879                 1.8849

                     16                     17                     18
                      A                      A                      A
 Frequencies --    904.0900               962.3282               980.5744
 Red. masses --      1.5391                 1.8041                 2.2378
 Frc consts  --      0.7412                 0.9844                 1.2678
 IR Inten    --      1.5480                 0.4639                 2.5436

                     19                     20                     21
                      A                      A                      A
 Frequencies --    986.5051              1042.2246              1070.1858
 Red. masses --      1.5660                 1.8853                 1.5048
 Frc consts  --      0.8979                 1.2066                 1.0154
 IR Inten    --      0.4209                 0.6632                 3.9921

                     22                     23                     24
                      A                      A                      A
 Frequencies --   1083.7633              1132.7613              1154.2043
 Red. masses --      1.4894                 1.2688                 2.1172
 Frc consts  --      1.0307                 0.9592                 1.6618
 IR Inten    --      5.8167                20.1087                 0.7459

                     25                     26                     27
                      A                      A                      A
 Frequencies --   1207.9740              1249.3761              1259.9672
 Red. masses --      1.6839                 1.8159                 1.2578
 Frc consts  --      1.4477                 1.6701                 1.1764
 IR Inten    --      3.3135                31.8357                 2.5215

                     28                     29                     30
                      A                      A                      A
 Frequencies --   1288.3690              1321.8188              1355.1413
 Red. masses --      1.3515                 1.4855                 1.5295
 Frc consts  --      1.3217                 1.5292                 1.6549
 IR Inten    --      2.5135                 2.9589                11.1300

                     31                     32                     33
                      A                      A                      A
 Frequencies --   1373.0863              1384.7300              1393.1888
 Red. masses --      1.4830                 1.4173                 1.4424
 Frc consts  --      1.6473                 1.6012                 1.6495
 IR Inten    --      7.8023                 3.0721                 4.4525

                     34                     35                     36
                      A                      A                      A
 Frequencies --   1410.0704              1445.2873              1491.4628
 Red. masses --      1.4113                 1.2564                 1.0991
 Frc consts  --      1.6533                 1.5462                 1.4405
 IR Inten    --      1.1654                 6.6298                 6.3342

                     37                     38                     39
                      A                      A                      A
 Frequencies --   1499.0391              1514.4008              1525.9767
 Red. masses --      1.0879                 1.0745                 1.0634
 Frc consts  --      1.4403                 1.4519                 1.4590
 IR Inten    --      7.7787                 2.6468                 5.5069

                     40                     41                     42
                      A                      A                      A
 Frequencies --   1531.5513              1539.9192              1817.4270
 Red. masses --      1.0643                 1.0698                10.9367
 Frc consts  --      1.4709                 1.4946                21.2839
 IR Inten    --      4.4686                 4.2607               176.9551

                     43                     44                     45
                      A                      A                      A
 Frequencies --   3018.3410              3022.0847              3025.3141
 Red. masses --      1.0692                 1.0697                 1.0688
 Frc consts  --      5.7389                 5.7558                 5.7638
 IR Inten    --      0.0647                18.1844                20.5720

                     46                     47                     48
                      A                      A                      A
 Frequencies --   3039.6807              3045.5485              3050.1904
 Red. masses --      1.0770                 1.0444                 1.0577
 Frc consts  --      5.8631                 5.7075                 5.7980
 IR Inten    --     60.9999                10.8633                18.0242

                     49                     50                     51
                      A                      A                      A
 Frequencies --   3072.3519              3087.1647              3110.3953
 Red. masses --      1.0945                 1.1038                 1.0975
 Frc consts  --      6.0871                 6.1983                 6.2559
 IR Inten    --     47.1127                50.8880                 6.3825

                     52                     53                     54
                      A                      A                      A
 Frequencies --   3113.1098              3114.9379              3118.0941
 Red. masses --      1.1013                 1.1001                 1.0949
 Frc consts  --      6.2886                 6.2892                 6.2718
 IR Inten    --     32.1270                42.1106                24.8815

 - Thermochemistry -
 -------------------
 Temperature   298.150 Kelvin.  Pressure   1.00000 Atm.
 Atom     1 has atomic number  8 and mass  15.99491

 Molecular mass:   112.08882 amu.
 Principal axes and moments of inertia in atomic units:
                           1         2         3
     Eigenvalues --   664.21925 919.816021249.59478
           X            0.99543  -0.09347  -0.01958
           Y            0.09343   0.99562  -0.00278
           Z            0.01976   0.00094   0.99980
 This molecule is an asymmetric top.
 Rotational symmetry number  1.
 Warning -- assumption of classical behavior for rotation
           may cause significant error
 Rotational temperatures (Kelvin)      0.13040     0.09416     0.06931
 Rotational constants (GHZ):           2.71709     1.96207     1.44426
 Zero-point vibrational energy     472461.8 (Joules/Mol)
                                  112.92108 (Kcal/Mol)
 Warning -- explicit consideration of  10 degrees of freedom as
           vibrations may cause significant error
 Vibrational temperatures:    121.81   182.43   310.61   374.60   493.74
          (Kelvin)            521.60   611.73   663.90   704.29   799.20
                              969.49  1077.58  1134.00  1192.72  1268.84
                             1300.78  1384.58  1410.83  1419.36  1499.53
                             1539.76  1559.29  1629.79  1660.64  1738.01
                             1797.57  1812.81  1853.68  1901.80  1949.75
                             1975.56  1992.32  2004.49  2028.78  2079.45
                             2145.88  2156.78  2178.89  2195.54  2203.56
                             2215.60  2614.87  4342.72  4348.11  4352.75
                             4373.42  4381.86  4388.54  4420.43  4441.74
                             4475.17  4479.07  4481.70  4486.24

 Zero-point correction=                           0.179951 (Hartree/Particle)
 Thermal correction to Energy=                    0.187786
 Thermal correction to Enthalpy=                  0.188730
 Thermal correction to Gibbs Free Energy=         0.147858
 Sum of electronic and zero-point Energies=           -349.024109
 Sum of electronic and thermal Energies=              -349.016273
 Sum of electronic and thermal Enthalpies=            -349.015329
 Sum of electronic and thermal Free Energies=         -349.056202

                     E (Thermal)             CV                S
                      KCal/Mol        Cal/Mol-Kelvin    Cal/Mol-Kelvin
 Total                  117.838             30.185             86.023
 Electronic               0.000              0.000              0.000
 Translational            0.889              2.981             40.058
 Rotational               0.889              2.981             28.125
 Vibrational            116.060             24.223             17.840
 Vibration     1          0.601              1.960              3.780
 Vibration     2          0.611              1.926              2.994
 Vibration     3          0.645              1.817              1.993
 Vibration     4          0.668              1.745              1.659
 Vibration     5          0.722              1.589              1.197
 Vibration     6          0.736              1.549              1.111
 Vibration     7          0.787              1.415              0.875
 Vibration     8          0.819              1.336              0.762
 Vibration     9          0.845              1.273              0.685
 Vibration    10          0.911              1.128              0.533

 Normal termination of Gaussian 16 at Wed Feb 21 18:14:42 2024.
