 Gaussian 16, Revision A.03,
 Gaussian 16:  EM64M-G16RevA.03 25-Dec-2016

 ---------------------
 # freq b3lyp/6-31g(d)
 ---------------------

 ---------
 good luck
 ---------
 Symbolic Z-matrix:
 Charge =  0 Multiplicity = 1

                         Standard orientation:
 ---------------------------------------------------------------------
 Center     Atomic      Atomic             Coordinates (Angstroms)
 Number     Number       Type             X           Y           Z
 ---------------------------------------------------------------------
      1          8           0        2.182139   -1.356916   -0.347159
      2          6           0        1.303104   -0.626977    0.070713
      3          6           0       -0.115138   -1.121254    0.327402
      4          6           0       -1.185890   -0.215297   -0.325569
      5          6           0       -2.600040   -0.698337    0.014581
      6          6           0       -0.961068    1.252505    0.077998
      7          6           0        0.452756    1.735580   -0.275352
      8          6           0        1.536632    0.848341    0.370835
      9          1           0       -0.191214   -2.155620   -0.022417
     10          1           0       -0.278745   -1.125291    1.417282
     11          1           0       -1.055620   -0.283782   -1.416819
     12          1           0       -2.784346   -0.642366    1.095247
     13          1           0       -3.358334   -0.084779   -0.486092
     14          1           0       -2.750789   -1.738760   -0.295907
     15          1           0       -1.707544    1.889258   -0.414139
     16          1           0       -1.127036    1.357836    1.161436
     17          1           0        0.592717    2.776671    0.039244
     18          1           0        0.579550    1.719873   -1.366698
     19          1           0        2.543419    1.117838    0.038758
     20          1           0        1.498699    0.977085    1.463726
 ---------------------------------------------------------------------

 SCF Done:  E(RB3LYP) =  -349.206548074     A.U. after   13 cycles

 The electronic state is 1-A.
 Alpha  occ. eigenvalues --  -19.13157 -10.26773 -10.20050 -10.19423 -10.19001
 Alpha  occ. eigenvalues --  -10.18935 -10.18830 -10.18115  -1.03027  -0.83694
 Alpha  occ. eigenvalues --   -0.77069  -0.72799  -0.68713  -0.61318  -0.57735
 Alpha  occ. eigenvalues --   -0.52991  -0.47767  -0.46305  -0.44097  -0.43801
 Alpha  occ. eigenvalues --   -0.43317  -0.39966  -0.39547  -0.38096  -0.37803
 Alpha  occ. eigenvalues --   -0.35676  -0.34575  -0.32953  -0.32278  -0.31824
 Alpha  occ. eigenvalues --   -0.23404
 Alpha virt. eigenvalues --   -0.01110   0.08290   0.10481   0.10903   0.13883
 Alpha virt. eigenvalues --    0.14772   0.15453   0.15811   0.16244   0.16997
 Alpha virt. eigenvalues --    0.17726   0.18155   0.18311   0.21305   0.22859

 Mulliken charges:
               1
     1  O   -0.447086
     2  C    0.448706
     3  C   -0.340690
     4  C   -0.085026
     5  C   -0.444640
     6  C   -0.259301
     7  C   -0.274806
     8  C   -0.341805
     9  H    0.160009
    10  H    0.148020
    11  H    0.133249
    12  H    0.141256
    13  H    0.144975
    14  H    0.147790
    15  H    0.137562
    16  H    0.128586
    17  H    0.143001
    18  H    0.144874
    19  H    0.162781
    20  H    0.152544
 Sum of Mulliken charges =  -0.00000

 Dipole moment (field-independent basis, Debye):
    X=             -2.3032    Y=              1.8631    Z=              0.8218  Tot=              3.0743
 Quadrupole moment (field-independent basis, Debye-Ang):
   XX=            -55.6325   YY=            -51.4036   ZZ=            -48.5157
   XY=              5.2511   XZ=              2.0847   YZ=             -1.0616

  Exact polarizability:  81.750  -0.569  75.046  -1.448   1.413  61.297
 Approx polarizability: 106.755  -7.974 103.284  -5.549   5.033  96.049

                      1                      2                      3
                      A                      A                      A
 Frequencies --     93.8724               129.3899               237.0097
 Red. masses --      3.7908                 2.4732                 1.0822
 Frc consts  --      0.0197                 0.0244                 0.0358
 IR Inten    --      2.7624                 0.8178                 0.0295

                      4                      5                      6
                      A                      A                      A
 Frequencies --    252.2854               294.3860               385.3146
 Red. masses --      1.9725                 2.2295                 3.0590
 Frc consts  --      0.0740                 0.1138                 0.2676
 IR Inten    --      0.6783                 0.4098                 1.1630

                      7                      8                      9
                      A                      A                      A
 Frequencies --    397.5797               434.9501               489.6200
 Red. masses --      3.5986                 1.8461                 2.2423
 Frc consts  --      0.3351                 0.2058                 0.3167
 IR Inten    --      0.2924                 1.2883                 3.2587

                     10                     11                     12
                      A                      A                      A
 Frequencies --    513.0813               642.7500               760.6812
 Red. masses --      2.8993                 3.7178                 2.0420
 Frc consts  --      0.4497                 0.9049                 0.6962
 IR Inten    --      9.1418                 1.2869                 3.5559

                     13                     14                     15
                      A                      A                      A
 Frequencies --    822.1594               842.1006               884.6711
 Red. masses --      2.6791                 1.6222                 1.4999
 Frc consts  --      1.0670                 0.6778                 0.6916
 IR Inten    --      1.5580                 1.1606                 3.5333

                     16                     17                     18
                      A                      A                      A
 Frequencies --    895.5527               962.7040               978.2696
 Red. masses --      2.3901                 2.0346                 1.6346
 Frc consts  --      1.1294                 1.1110                 0.9217
 IR Inten    --      1.6583                 0.5940                 3.7922

                     19                     20                     21
                      A                      A                      A
 Frequencies --    986.7752              1059.1666              1076.3268
 Red. masses --      1.4269                 1.8609                 1.1487
 Frc consts  --      0.8186                 1.2300                 0.7840
 IR Inten    --      0.4957                 1.4076                 8.7556

                     22                     23                     24
                      A                      A                      A
 Frequencies --   1100.0673              1138.2294              1156.1314
 Red. masses --      2.4907                 2.0849                 2.0681
 Frc consts  --      1.7759                 1.5915                 1.6286
 IR Inten    --      1.9019                10.8623                 0.9304

                     25                     26                     27
                      A                      A                      A
 Frequencies --   1238.2126              1249.7643              1263.6385
 Red. masses --      1.6968                 1.7426                 1.3482
 Frc consts  --      1.5327                 1.6036                 1.2684
 IR Inten    --     12.2986                33.9380                 0.2523

                     28                     29                     30
                      A                      A                      A
 Frequencies --   1304.3568              1312.4738              1349.8794
 Red. masses --      1.2808                 1.4501                 1.4149
 Frc consts  --      1.2839                 1.4718                 1.5190
 IR Inten    --      0.7278                 9.7814                 0.9892

                     31                     32                     33
                      A                      A                      A
 Frequencies --   1361.8869              1383.5954              1393.3343
 Red. masses --      1.3236                 1.3599                 1.4715
 Frc consts  --      1.4464                 1.5339                 1.6832
 IR Inten    --      9.2712                 7.8229                 9.9763

                     34                     35                     36
                      A                      A                      A
 Frequencies --   1411.2445              1439.3975              1490.4947
 Red. masses --      1.5971                 1.2354                 1.0970
 Frc consts  --      1.8740                 1.5081                 1.4359
 IR Inten    --      2.8625                 2.2255                 4.9615

                     37                     38                     39
                      A                      A                      A
 Frequencies --   1497.7153              1517.8017              1527.6541
 Red. masses --      1.0884                 1.0839                 1.0460
 Frc consts  --      1.4384                 1.4712                 1.4382
 IR Inten    --      5.2316                 5.7397                 8.7220

                     40                     41                     42
                      A                      A                      A
 Frequencies --   1528.3090              1529.2808              1817.5174
 Red. masses --      1.0647                 1.0829                10.9836
 Frc consts  --      1.4652                 1.4921                21.3772
 IR Inten    --      2.8461                 1.2471               191.6201

                     43                     44                     45
                      A                      A                      A
 Frequencies --   3002.7337              3011.7660              3020.0132
 Red. masses --      1.0773                 1.0694                 1.0695
 Frc consts  --      5.7230                 5.7150                 5.7473
 IR Inten    --      0.9842                 6.7655                14.0624

                     46                     47                     48
                      A                      A                      A
 Frequencies --   3023.4819              3038.6808              3039.7672
 Red. masses --      1.0706                 1.0588                 1.0410
 Frc consts  --      5.7660                 5.7599                 5.6673
 IR Inten    --     29.2820                15.5557                54.9579

                     49                     50                     51
                      A                      A                      A
 Frequencies --   3071.2812              3083.7081              3103.5159
 Red. masses --      1.0953                 1.1018                 1.1007
 Frc consts  --      6.0875                 6.1732                 6.2462
 IR Inten    --     45.1880                41.3097                34.0884

                     52                     53                     54
                      A                      A                      A
 Frequencies --   3110.0564              3112.8504              3118.9758
 Red. masses --      1.0969                 1.1002                 1.0945
 Frc consts  --      6.2508                 6.2811                 6.2732
 IR Inten    --     15.4617                45.0198                20.5210

 - Thermochemistry -
 -------------------
 Temperature   298.150 Kelvin.  Pressure   1.00000 Atm.
 Atom     1 has atomic number  8 and mass  15.99491

 Molecular mass:   112.08882 amu.
 Principal axes and moments of inertia in atomic units:
                           1         2         3
     Eigenvalues --   588.103071059.844701517.16223
           X            0.99726   0.07382   0.00476
           Y           -0.07377   0.99723  -0.00906
           Z           -0.00542   0.00868   0.99995
 This molecule is an asymmetric top.
 Rotational symmetry number  1.
 Warning -- assumption of classical behavior for rotation
           may cause significant error
 Rotational temperatures (Kelvin)      0.14728     0.08172     0.05709
 Rotational constants (GHZ):           3.06875     1.70284     1.18955
 Zero-point vibrational energy     471845.8 (Joules/Mol)
                                  112.77386 (Kcal/Mol)
 Warning -- explicit consideration of  10 degrees of freedom as
           vibrations may cause significant error
 Vibrational temperatures:    135.06   186.16   341.00   362.98   423.56
          (Kelvin)            554.38   572.03   625.80   704.45   738.21
                              924.77  1094.45  1182.90  1211.59  1272.84
                             1288.50  1385.12  1407.51  1419.75  1523.90
                             1548.59  1582.75  1637.66  1663.42  1781.51
                             1798.13  1818.09  1876.68  1888.36  1942.18
                             1959.45  1990.69  2004.70  2030.47  2070.97
                             2144.49  2154.88  2183.78  2197.95  2198.90
                             2200.29  2615.00  4320.26  4333.26  4345.13
                             4350.12  4371.98  4373.55  4418.89  4436.77
                             4465.27  4474.68  4478.70  4487.51

 Zero-point correction=                           0.179717 (Hartree/Particle)
 Thermal correction to Energy=                    0.187613
 Thermal correction to Enthalpy=                  0.188557
 Thermal correction to Gibbs Free Energy=         0.147556
 Sum of electronic and zero-point Energies=           -349.026831
 Sum of electronic and thermal Energies=              -349.018935
 Sum of electronic and thermal Enthalpies=            -349.017991
 Sum of electronic and thermal Free Energies=         -349.058992

                     E (Thermal)             CV                S
                      KCal/Mol        Cal/Mol-Kelvin    Cal/Mol-Kelvin
 Total                  117.729             30.336             86.294
 Electronic               0.000              0.000              0.000
 Translational            0.889              2.981             40.058
 Rotational               0.889              2.981             28.338
 Vibrational            115.951             24.375             17.897
 Vibration     1          0.603              1.954              3.578
 Vibration     2          0.612              1.924              2.955
 Vibration     3          0.656              1.784              1.825
 Vibration     4          0.664              1.759              1.715
 Vibration     5          0.689              1.684              1.449
 Vibration     6          0.754              1.502              1.018
 Vibration     7          0.764              1.475              0.972
 Vibration     8          0.796              1.394              0.843
 Vibration     9          0.845              1.273              0.685
 Vibration    10          0.868              1.221              0.626

 Normal termination of Gaussian 16 at Wed Feb 21 18:15:52 2024.
