 Gaussian 16, Revision A.03,
 Gaussian 16:  EM64M-G16RevA.03 25-Dec-2016

 ---------------------
 # freq b3lyp/6-31g(d)
 ---------------------

 ---------
 good luck
 ---------
 Symbolic Z-matrix:
 Charge =  0 Multiplicity = 1

                         Standard orientation:
 ---------------------------------------------------------------------
 Center     Atomic      Atomic             Coordinates (Angstroms)
 Number     Number       Type             X           Y           Z
 ---------------------------------------------------------------------
      1          8           0       -0.314159    2.353493   -0.700540
      2          6           0       -0.148264    1.230114   -0.259776
      3          6           0       -1.017302    0.048434   -0.696754
      4          6           0       -2.019132   -0.368340    0.425088
      5          6           0       -2.804210    0.844975    0.951864
      6          6           0       -2.998187   -1.446419   -0.067419
      7          6           0       -0.081342   -1.091445   -1.177012
      8          6           0        1.024330   -1.437724   -0.166289
      9          6           0        1.894836   -0.225257    0.246142
     10          6           0        2.841635   -0.635691    1.386827
     11          6           0        2.736804    0.282517   -0.942115
     12          6           0        0.954657    0.910233    0.741033
     13          1           0       -1.611833    0.409769   -1.545383
     14          1           0       -1.449826   -0.792394    1.264532
     15          1           0       -2.151282    1.605801    1.392172
     16          1           0       -3.521825    0.534322    1.719947
     17          1           0       -3.365217    1.327762    0.142132
     18          1           0       -3.579238   -1.082786   -0.924518
     19          1           0       -3.707317   -1.708441    0.726391
     20          1           0       -2.492942   -2.368728   -0.370910
     21          1           0        0.375455   -0.783526   -2.125904
     22          1           0       -0.665890   -1.988648   -1.407923
     23          1           0        1.669753   -2.220869   -0.586232
     24          1           0        0.573033   -1.869007    0.738419
     25          1           0        2.282931   -1.011101    2.253007
     26          1           0        3.449267    0.213927    1.721208
     27          1           0        3.526704   -1.428159    1.060697
     28          1           0        3.379170   -0.516070   -1.332859
     29          1           0        3.383942    1.110219   -0.628875
     30          1           0        2.118629    0.651431   -1.767449
     31          1           0        0.483487    0.590281    1.682539
     32          1           0        1.513313    1.829888    0.943788
 ---------------------------------------------------------------------

 SCF Done:  E(RB3LYP) =  -506.456186188     A.U. after   14 cycles

 The electronic state is 1-A.
 Alpha  occ. eigenvalues --  -19.12923 -10.26305 -10.20605 -10.19852 -10.19003
 Alpha  occ. eigenvalues --  -10.18852 -10.18585 -10.18497 -10.17804 -10.17795
 Alpha  occ. eigenvalues --  -10.17585 -10.17366  -1.02783  -0.84598  -0.80972
 Alpha  occ. eigenvalues --   -0.75547  -0.72473  -0.68799  -0.68442  -0.68130
 Alpha  occ. eigenvalues --   -0.61327  -0.57546  -0.55352  -0.51205  -0.47754
 Alpha  occ. eigenvalues --   -0.45955  -0.45627  -0.45081  -0.43822  -0.43288
 Alpha  occ. eigenvalues --   -0.42532  -0.39906  -0.39310  -0.38506  -0.38310
 Alpha  occ. eigenvalues --   -0.38078  -0.37515  -0.37082  -0.35953  -0.35044
 Alpha  occ. eigenvalues --   -0.34008  -0.33539  -0.32648  -0.31672  -0.30882
 Alpha  occ. eigenvalues --   -0.30474  -0.22911
 Alpha virt. eigenvalues --   -0.00941   0.06556   0.09711   0.09794   0.11904
 Alpha virt. eigenvalues --    0.12564   0.13249   0.13701   0.13954   0.14544
 Alpha virt. eigenvalues --    0.15955   0.16328   0.16610   0.17750   0.18151

 Mulliken charges:
               1
     1  O   -0.463379
     2  C    0.447768
     3  C   -0.141603
     4  C   -0.090958
     5  C   -0.450618
     6  C   -0.448713
     7  C   -0.299616
     8  C   -0.265508
     9  C    0.084863
    10  C   -0.445574
    11  C   -0.455065
    12  C   -0.346188
    13  H    0.139109
    14  H    0.125396
    15  H    0.154074
    16  H    0.140509
    17  H    0.152807
    18  H    0.145348
    19  H    0.145016
    20  H    0.145996
    21  H    0.146414
    22  H    0.142723
    23  H    0.133565
    24  H    0.131971
    25  H    0.137859
    26  H    0.143678
    27  H    0.141961
    28  H    0.140837
    29  H    0.147220
    30  H    0.155395
    31  H    0.149183
    32  H    0.155529
 Sum of Mulliken charges =  -0.00000

 Dipole moment (field-independent basis, Debye):
    X=              0.4144    Y=             -2.7756    Z=              0.9549  Tot=              2.9644
 Quadrupole moment (field-independent basis, Debye-Ang):
   XX=            -73.7860   YY=            -84.2473   ZZ=            -75.8085
   XY=              1.4575   XZ=             -0.5309   YZ=              3.1498

  Exact polarizability: 128.036   0.287 111.737   0.834  -0.398 101.577
 Approx polarizability: 157.833  -1.296 170.387   1.452  -7.044 154.065

                      1                      2                      3
                      A                      A                      A
 Frequencies --     41.6242                65.7441                96.2723
 Red. masses --      2.4859                 3.5705                 4.1262
 Frc consts  --      0.0025                 0.0091                 0.0225
 IR Inten    --      0.0613                 0.8236                 2.3320

                      4                      5                      6
                      A                      A                      A
 Frequencies --    149.4615               185.3917               215.1677
 Red. masses --      3.1303                 3.2154                 1.0905
 Frc consts  --      0.0412                 0.0651                 0.0297
 IR Inten    --      0.7594                 0.1645                 0.0981

                      7                      8                      9
                      A                      A                      A
 Frequencies --    227.7374               231.5739               254.5605
 Red. masses --      1.1384                 1.0890                 1.3755
 Frc consts  --      0.0348                 0.0344                 0.0525
 IR Inten    --      0.3245                 0.0445                 0.3796

                     10                     11                     12
                      A                      A                      A
 Frequencies --    285.9127               317.3311               334.0370
 Red. masses --      1.5479                 2.2453                 2.2893
 Frc consts  --      0.0746                 0.1332                 0.1505
 IR Inten    --      0.3966                 0.0390                 1.2770

                     13                     14                     15
                      A                      A                      A
 Frequencies --    343.5126               382.1945               401.3486
 Red. masses --      2.7783                 2.3472                 2.0544
 Frc consts  --      0.1932                 0.2020                 0.1950
 IR Inten    --      0.5107                 0.0567                 0.1741

                     16                     17                     18
                      A                      A                      A
 Frequencies --    414.5629               422.1836               450.1448
 Red. masses --      2.1518                 2.2270                 3.3871
 Frc consts  --      0.2179                 0.2339                 0.4044
 IR Inten    --      0.1986                 0.0107                 1.4289

                     19                     20                     21
                      A                      A                      A
 Frequencies --    496.5398               531.3404               585.7370
 Red. masses --      2.8729                 3.3548                 2.8258
 Frc consts  --      0.4173                 0.5580                 0.5712
 IR Inten    --      0.0337                12.8546                 0.4814

                     22                     23                     24
                      A                      A                      A
 Frequencies --    665.5293               735.8442               804.2897
 Red. masses --      4.0078                 2.1922                 2.5664
 Frc consts  --      1.0459                 0.6994                 0.9781
 IR Inten    --      0.6192                 3.5651                 4.5709

                     25                     26                     27
                      A                      A                      A
 Frequencies --    822.4416               871.9604               908.5358
 Red. masses --      2.4415                 2.4043                 2.4698
 Frc consts  --      0.9730                 1.0771                 1.2011
 IR Inten    --      0.8582                 1.0446                 0.0104

                     28                     29                     30
                      A                      A                      A
 Frequencies --    927.2462               937.1328               941.9423
 Red. masses --      2.0598                 1.8331                 1.2033
 Frc consts  --      1.0434                 0.9485                 0.6290
 IR Inten    --      4.0366                 0.7190                 0.5061

                     31                     32                     33
                      A                      A                      A
 Frequencies --    957.5259               966.1726               977.8761
 Red. masses --      1.5031                 1.8569                 1.5648
 Frc consts  --      0.8120                 1.0213                 0.8816
 IR Inten    --      0.3259                 3.3660                 0.8137

                     34                     35                     36
                      A                      A                      A
 Frequencies --   1001.0190              1014.0982              1047.3481
 Red. masses --      1.5131                 1.8000                 1.4824
 Frc consts  --      0.8933                 1.0907                 0.9581
 IR Inten    --      7.4305                 1.2315                 2.3772

                     37                     38                     39
                      A                      A                      A
 Frequencies --   1069.6160              1093.1537              1119.2637
 Red. masses --      1.6630                 2.1307                 1.4968
 Frc consts  --      1.1210                 1.5002                 1.1048
 IR Inten    --      6.2097                 7.1871                 2.3668

                     40                     41                     42
                      A                      A                      A
 Frequencies --   1166.8463              1194.2924              1201.4882
 Red. masses --      2.1595                 1.6591                 1.7977
 Frc consts  --      1.7323                 1.3943                 1.5290
 IR Inten    --      1.7857                20.4525                 1.5532

                     43                     44                     45
                      A                      A                      A
 Frequencies --   1205.9821              1227.0652              1260.8048
 Red. masses --      2.2379                 1.4510                 1.7503
 Frc consts  --      1.9177                 1.2872                 1.6393
 IR Inten    --      1.3685                 6.8371                34.3206

                     46                     47                     48
                      A                      A                      A
 Frequencies --   1285.5653              1307.5821              1323.0830
 Red. masses --      2.5387                 1.4655                 1.5747
 Frc consts  --      2.4720                 1.4763                 1.6241
 IR Inten    --      7.7555                 3.5681                 2.2343

                     49                     50                     51
                      A                      A                      A
 Frequencies --   1332.4921              1342.3324              1369.5405
 Red. masses --      1.6557                 1.3967                 1.4067
 Frc consts  --      1.7321                 1.4828                 1.5546
 IR Inten    --     18.5871                 3.5120                 3.2845

                     52                     53                     54
                      A                      A                      A
 Frequencies --   1386.9214              1390.4093              1406.0171
 Red. masses --      1.3814                 1.4399                 1.4077
 Frc consts  --      1.5656                 1.6400                 1.6396
 IR Inten    --      6.2455                 0.5610                 5.7979

                     55                     56                     57
                      A                      A                      A
 Frequencies --   1430.5227              1432.2817              1451.7859
 Red. masses --      1.2400                 1.2408                 1.2242
 Frc consts  --      1.4951                 1.4998                 1.5203
 IR Inten    --      6.5317                 4.6680                 2.9093

                     58                     59                     60
                      A                      A                      A
 Frequencies --   1453.7873              1495.7258              1510.7334
 Red. masses --      1.2185                 1.0924                 1.0680
 Frc consts  --      1.5173                 1.4400                 1.4361
 IR Inten    --      7.7885                 5.7885                 1.2211

                     61                     62                     63
                      A                      A                      A
 Frequencies --   1514.4776              1515.7279              1521.3924
 Red. masses --      1.0511                 1.0476                 1.0506
 Frc consts  --      1.4205                 1.4181                 1.4327
 IR Inten    --      0.7057                 0.1635                 1.3325

                     64                     65                     66
                      A                      A                      A
 Frequencies --   1527.8992              1530.2276              1534.5350
 Red. masses --      1.0652                 1.0631                 1.0571
 Frc consts  --      1.4651                 1.4667                 1.4666
 IR Inten    --      7.8307                 6.7818                 5.4033

                     67                     68                     69
                      A                      A                      A
 Frequencies --   1535.5212              1540.6592              1548.3044
 Red. masses --      1.0574                 1.0498                 1.0619
 Frc consts  --      1.4689                 1.4681                 1.4998
 IR Inten    --      6.4954                 9.3053                 0.2843

                     70                     71                     72
                      A                      A                      A
 Frequencies --   1804.3561              3020.6294              3025.5213
 Red. masses --     10.9507                 1.0766                 1.0646
 Frc consts  --     21.0057                 5.7876                 5.7416
 IR Inten    --    165.9723                12.6310                12.3492

                     73                     74                     75
                      A                      A                      A
 Frequencies --   3032.2438              3037.2235              3043.0494
 Red. masses --      1.0592                 1.0418                 1.0371
 Frc consts  --      5.7381                 5.6622                 5.6581
 IR Inten    --      9.3203                48.5408                16.5692

                     76                     77                     78
                      A                      A                      A
 Frequencies --   3046.4280              3047.7604              3049.9254
 Red. masses --      1.0455                 1.0409                 1.0642
 Frc consts  --      5.7166                 5.6967                 5.8326
 IR Inten    --     10.5627                10.5401                22.9869

                     79                     80                     81
                      A                      A                      A
 Frequencies --   3059.1241              3070.5658              3091.6948
 Red. masses --      1.0859                 1.0883                 1.1000
 Frc consts  --      5.9876                 6.0454                 6.1950
 IR Inten    --     38.1641                49.3172                37.4811

                     82                     83                     84
                      A                      A                      A
 Frequencies --   3102.2573              3103.8465              3105.2120
 Red. masses --      1.1012                 1.1008                 1.1021
 Frc consts  --      6.2441                 6.2484                 6.2610
 IR Inten    --     16.9946                 1.3988                 4.2259

                     85                     86                     87
                      A                      A                      A
 Frequencies --   3106.1901              3111.5565              3113.4442
 Red. masses --      1.1000                 1.1007                 1.1016
 Frc consts  --      6.2534                 6.2785                 6.2915
 IR Inten    --     36.8015                58.5087                60.8002

                     88                     89                     90
                      A                      A                      A
 Frequencies --   3119.8148              3120.7798              3123.6439
 Red. masses --      1.1008                 1.1014                 1.0996
 Frc consts  --      6.3125                 6.3201                 6.3216
 IR Inten    --     34.8844                27.2308                40.1534

 - Thermochemistry -
 -------------------
 Temperature   298.150 Kelvin.  Pressure   1.00000 Atm.
 Atom     1 has atomic number  8 and mass  15.99491

 Molecular mass:   168.15142 amu.
 Principal axes and moments of inertia in atomic units:
                           1         2         3
     Eigenvalues --  1271.783552751.461803154.66917
           X            0.99997   0.00699  -0.00176
           Y           -0.00691   0.99911   0.04154
           Z            0.00205  -0.04153   0.99914
 This molecule is an asymmetric top.
 Rotational symmetry number  1.
 Warning -- assumption of classical behavior for rotation
           may cause significant error
 Rotational temperatures (Kelvin)      0.06810     0.03148     0.02746
 Rotational constants (GHZ):           1.41906     0.65592     0.57209
 Zero-point vibrational energy     769035.2 (Joules/Mol)
                                  183.80382 (Kcal/Mol)
 Warning -- explicit consideration of  21 degrees of freedom as
           vibrations may cause significant error
 Vibrational temperatures:     59.89    94.59   138.51   215.04   266.74
          (Kelvin)            309.58   327.66   333.18   366.26   411.36
                              456.57   480.60   494.24   549.89   577.45
                              596.46   607.43   647.66   714.41   764.48
                              842.74   957.55  1058.72  1157.19  1183.31
                             1254.56  1307.18  1334.10  1348.33  1355.24
                             1377.67  1390.11  1406.95  1440.24  1459.06
                             1506.90  1538.94  1572.80  1610.37  1678.83
                             1718.32  1728.67  1735.14  1765.47  1814.02
                             1849.64  1881.32  1903.62  1917.16  1931.32
                             1970.46  1995.47  2000.49  2022.95  2058.20
                             2060.73  2088.80  2091.68  2152.02  2173.61
                             2179.00  2180.79  2188.94  2198.31  2201.66
                             2207.85  2209.27  2216.66  2227.66  2596.07
                             4346.01  4353.05  4362.72  4369.89  4378.27
                             4383.13  4385.05  4388.16  4401.40  4417.86
                             4448.26  4463.46  4465.74  4467.71  4469.11
                             4476.84  4479.55  4488.72  4490.11  4494.23

 Zero-point correction=                           0.292910 (Hartree/Particle)
 Thermal correction to Energy=                    0.306271
 Thermal correction to Enthalpy=                  0.307215
 Thermal correction to Gibbs Free Energy=         0.253968
 Sum of electronic and zero-point Energies=           -506.163276
 Sum of electronic and thermal Energies=              -506.149916
 Sum of electronic and thermal Enthalpies=            -506.148971
 Sum of electronic and thermal Free Energies=         -506.202219

                     E (Thermal)             CV                S
                      KCal/Mol        Cal/Mol-Kelvin    Cal/Mol-Kelvin
 Total                  192.188             51.985            112.068
 Electronic               0.000              0.000              0.000
 Translational            0.889              2.981             41.267
 Rotational               0.889              2.981             30.780
 Vibrational            190.410             46.023             40.021
 Vibration     1          0.594              1.981              5.180
 Vibration     2          0.597              1.971              4.277
 Vibration     3          0.603              1.952              3.528
 Vibration     4          0.618              1.903              2.679
 Vibration     5          0.631              1.860              2.273
 Vibration     6          0.645              1.818              1.999
 Vibration     7          0.651              1.799              1.897
 Vibration     8          0.653              1.793              1.867
 Vibration     9          0.665              1.755              1.699
 Vibration    10          0.684              1.700              1.498
 Vibration    11          0.704              1.640              1.324
 Vibration    12          0.716              1.608              1.240
 Vibration    13          0.722              1.588              1.196
 Vibration    14          0.752              1.508              1.030
 Vibration    15          0.767              1.467              0.958
 Vibration    16          0.778              1.439              0.911
 Vibration    17          0.785              1.422              0.885
 Vibration    18          0.809              1.361              0.795
 Vibration    19          0.852              1.258              0.667
 Vibration    20          0.886              1.181              0.584
 Vibration    21          0.943              1.062              0.475

 Normal termination of Gaussian 16 at Sat Feb 24 04:49:43 2024.
