 Gaussian 16, Revision A.03,
 Gaussian 16:  EM64M-G16RevA.03 25-Dec-2016

 ---------------------
 # freq b3lyp/6-31g(d)
 ---------------------

 ---------
 good luck
 ---------
 Symbolic Z-matrix:
 Charge =  0 Multiplicity = 1

                         Standard orientation:
 ---------------------------------------------------------------------
 Center     Atomic      Atomic             Coordinates (Angstroms)
 Number     Number       Type             X           Y           Z
 ---------------------------------------------------------------------
      1          8           0       -0.551452    2.198312   -0.342997
      2          6           0       -0.090340    1.087306   -0.535132
      3          6           0       -0.939007   -0.188348   -0.503784
      4          6           0       -2.431720    0.085253   -0.199112
      5          6           0       -3.319393   -1.092583   -0.630214
      6          6           0       -2.702253    0.467786    1.265119
      7          6           0       -0.254664   -1.245582    0.398434
      8          6           0        1.217553   -1.467962    0.022423
      9          6           0        2.069850   -0.176700    0.048050
     10          6           0        2.195214    0.375982    1.482340
     11          6           0        3.477483   -0.477969   -0.494170
     12          6           0        1.384742    0.879845   -0.859884
     13          1           0       -0.878729   -0.581606   -1.534367
     14          1           0       -2.705997    0.953759   -0.811042
     15          1           0       -3.110852   -1.997082   -0.045224
     16          1           0       -3.176856   -1.339341   -1.689749
     17          1           0       -4.378591   -0.849774   -0.485269
     18          1           0       -3.749139    0.769000    1.388100
     19          1           0       -2.525488   -0.372981    1.946970
     20          1           0       -2.075521    1.308215    1.576473
     21          1           0       -0.797860   -2.194773    0.320814
     22          1           0       -0.326585   -0.936742    1.447564
     23          1           0        1.267177   -1.899923   -0.988320
     24          1           0        1.662783   -2.211274    0.697383
     25          1           0        2.639694   -0.371957    2.150252
     26          1           0        2.838366    1.263722    1.498033
     27          1           0        1.228326    0.670271    1.904594
     28          1           0        3.433656   -0.883272   -1.512515
     29          1           0        3.991313   -1.213160    0.137479
     30          1           0        4.093709    0.428915   -0.519575
     31          1           0        1.448317    0.539552   -1.905043
     32          1           0        1.889112    1.849791   -0.797005
 ---------------------------------------------------------------------

 SCF Done:  E(RB3LYP) =  -506.458963743     A.U. after   13 cycles

 The electronic state is 1-A.
 Alpha  occ. eigenvalues --  -19.13343 -10.26648 -10.20641 -10.19277 -10.18923
 Alpha  occ. eigenvalues --  -10.18675 -10.18614 -10.18456 -10.17846 -10.17725
 Alpha  occ. eigenvalues --  -10.17166 -10.16451  -1.03191  -0.84579  -0.80650
 Alpha  occ. eigenvalues --   -0.75278  -0.72703  -0.68896  -0.68083  -0.67657
 Alpha  occ. eigenvalues --   -0.61805  -0.56958  -0.54620  -0.51468  -0.47108
 Alpha  occ. eigenvalues --   -0.46004  -0.45729  -0.45363  -0.44158  -0.42781
 Alpha  occ. eigenvalues --   -0.41587  -0.40405  -0.39834  -0.39335  -0.38254
 Alpha  occ. eigenvalues --   -0.37347  -0.37309  -0.36547  -0.35720  -0.34679
 Alpha  occ. eigenvalues --   -0.33826  -0.32595  -0.32154  -0.31765  -0.30981
 Alpha  occ. eigenvalues --   -0.30357  -0.23321
 Alpha virt. eigenvalues --   -0.01186   0.07522   0.08904   0.10317   0.12198
 Alpha virt. eigenvalues --    0.12731   0.13289   0.13628   0.14507   0.15380
 Alpha virt. eigenvalues --    0.15768   0.16393   0.16960   0.17772   0.18362

 Mulliken charges:
               1
     1  O   -0.458030
     2  C    0.444546
     3  C   -0.169397
     4  C   -0.060805
     5  C   -0.453597
     6  C   -0.458223
     7  C   -0.286556
     8  C   -0.266292
     9  C    0.087978
    10  C   -0.454877
    11  C   -0.445647
    12  C   -0.341160
    13  H    0.135919
    14  H    0.143021
    15  H    0.139490
    16  H    0.136563
    17  H    0.144470
    18  H    0.140151
    19  H    0.133845
    20  H    0.164317
    21  H    0.143549
    22  H    0.150477
    23  H    0.126936
    24  H    0.133144
    25  H    0.141711
    26  H    0.147411
    27  H    0.153399
    28  H    0.138657
    29  H    0.142069
    30  H    0.143784
    31  H    0.147223
    32  H    0.155926
 Sum of Mulliken charges =  -0.00000

 Dipole moment (field-independent basis, Debye):
    X=              1.1739    Y=             -2.4674    Z=             -0.2829  Tot=              2.7470
 Quadrupole moment (field-independent basis, Debye-Ang):
   XX=            -74.8509   YY=            -83.1279   ZZ=            -74.8474
   XY=              2.0647   XZ=              0.0819   YZ=              0.3061

  Exact polarizability: 132.674  -1.359 109.065  -0.885   1.349 100.061
 Approx polarizability: 160.027  -6.342 169.704  -1.463   2.552 150.705

                      1                      2                      3
                      A                      A                      A
 Frequencies --     52.2515                77.4855                96.7496
 Red. masses --      3.2642                 2.4726                 4.3976
 Frc consts  --      0.0053                 0.0087                 0.0243
 IR Inten    --      0.2445                 0.0983                 2.3244

                      4                      5                      6
                      A                      A                      A
 Frequencies --    171.9604               207.6717               217.0720
 Red. masses --      2.8576                 2.1380                 1.1756
 Frc consts  --      0.0498                 0.0543                 0.0326
 IR Inten    --      1.4899                 0.1683                 0.8155

                      7                      8                      9
                      A                      A                      A
 Frequencies --    237.8206               251.3529               255.8330
 Red. masses --      1.2646                 1.2303                 1.1934
 Frc consts  --      0.0421                 0.0458                 0.0460
 IR Inten    --      0.0455                 0.0945                 0.6097

                     10                     11                     12
                      A                      A                      A
 Frequencies --    259.4636               274.2223               293.3485
 Red. masses --      2.1467                 2.3723                 1.5990
 Frc consts  --      0.0851                 0.1051                 0.0811
 IR Inten    --      1.1813                 0.6930                 1.0519

                     13                     14                     15
                      A                      A                      A
 Frequencies --    347.5519               374.2307               387.8186
 Red. masses --      2.4281                 2.9726                 2.6395
 Frc consts  --      0.1728                 0.2453                 0.2339
 IR Inten    --      0.2808                 1.6916                 0.6202

                     16                     17                     18
                      A                      A                      A
 Frequencies --    403.9488               423.9630               451.3830
 Red. masses --      2.1161                 2.2554                 2.6448
 Frc consts  --      0.2034                 0.2389                 0.3175
 IR Inten    --      0.0654                 2.2520                 0.9169

                     19                     20                     21
                      A                      A                      A
 Frequencies --    495.5446               559.2669               616.8621
 Red. masses --      2.7946                 2.7156                 3.4732
 Frc consts  --      0.4043                 0.5004                 0.7787
 IR Inten    --      0.1948                 5.4837                 4.1367

                     22                     23                     24
                      A                      A                      A
 Frequencies --    659.4868               733.0816               761.5636
 Red. masses --      3.8983                 2.2903                 2.7154
 Frc consts  --      0.9989                 0.7252                 0.9279
 IR Inten    --      3.6826                 2.6592                 1.1950

                     25                     26                     27
                      A                      A                      A
 Frequencies --    834.6115               893.6941               902.3564
 Red. masses --      2.5419                 2.0526                 1.9353
 Frc consts  --      1.0432                 0.9659                 0.9284
 IR Inten    --      1.0920                 1.3800                 2.0892

                     28                     29                     30
                      A                      A                      A
 Frequencies --    934.7920               939.3960               943.2946
 Red. masses --      1.9002                 1.3099                 1.7706
 Frc consts  --      0.9783                 0.6811                 0.9282
 IR Inten    --      0.7701                 3.3260                 1.0127

                     31                     32                     33
                      A                      A                      A
 Frequencies --    956.9509               975.7064               988.0472
 Red. masses --      1.6170                 1.4462                 1.8114
 Frc consts  --      0.8725                 0.8112                 1.0419
 IR Inten    --      1.8633                 0.1591                 0.3387

                     34                     35                     36
                      A                      A                      A
 Frequencies --   1007.9251              1032.1064              1039.5423
 Red. masses --      1.9053                 1.7316                 1.3573
 Frc consts  --      1.1405                 1.0868                 0.8642
 IR Inten    --      9.3588                 1.1242                 1.9499

                     37                     38                     39
                      A                      A                      A
 Frequencies --   1058.6690              1093.6045              1117.2754
 Red. masses --      1.9226                 1.8286                 1.4109
 Frc consts  --      1.2696                 1.2885                 1.0377
 IR Inten    --      1.7987                26.4613                 1.9551

                     40                     41                     42
                      A                      A                      A
 Frequencies --   1166.0638              1192.8046              1202.9937
 Red. masses --      2.0595                 2.0884                 1.7361
 Frc consts  --      1.6499                 1.7507                 1.4803
 IR Inten    --      2.8350                 0.5422                29.6551

                     43                     44                     45
                      A                      A                      A
 Frequencies --   1216.9143              1221.1931              1242.7371
 Red. masses --      1.9521                 1.8773                 1.7213
 Frc consts  --      1.7032                 1.6495                 1.5663
 IR Inten    --      6.4870                 0.8035                15.9008

                     46                     47                     48
                      A                      A                      A
 Frequencies --   1297.6340              1306.7534              1325.6137
 Red. masses --      1.9128                 1.5414                 1.4226
 Frc consts  --      1.8977                 1.5508                 1.4729
 IR Inten    --      4.0042                 2.5253                 2.6311

                     49                     50                     51
                      A                      A                      A
 Frequencies --   1339.0776              1342.0486              1375.9573
 Red. masses --      1.4407                 1.5466                 1.4105
 Frc consts  --      1.5220                 1.6412                 1.5734
 IR Inten    --      7.1361                 8.3810                 4.8758

                     52                     53                     54
                      A                      A                      A
 Frequencies --   1394.6651              1397.8307              1405.3958
 Red. masses --      1.4443                 1.4365                 1.5866
 Frc consts  --      1.6551                 1.6538                 1.8464
 IR Inten    --      3.6647                 4.6183                 6.1034

                     55                     56                     57
                      A                      A                      A
 Frequencies --   1428.6833              1430.2271              1448.5316
 Red. masses --      1.2712                 1.2439                 1.2336
 Frc consts  --      1.5287                 1.4992                 1.5251
 IR Inten    --      4.6635                 9.3096                 5.1373

                     58                     59                     60
                      A                      A                      A
 Frequencies --   1451.5286              1493.7396              1509.8806
 Red. masses --      1.2247                 1.0889                 1.0730
 Frc consts  --      1.5204                 1.4315                 1.4412
 IR Inten    --      6.2755                 4.5000                 0.4037

                     61                     62                     63
                      A                      A                      A
 Frequencies --   1514.3135              1520.0659              1525.9588
 Red. masses --      1.0485                 1.0455                 1.0576
 Frc consts  --      1.4167                 1.4234                 1.4510
 IR Inten    --      0.2994                 1.3415                 3.6954

                     64                     65                     66
                      A                      A                      A
 Frequencies --   1526.7204              1530.9244              1534.9057
 Red. masses --      1.0654                 1.0694                 1.0583
 Frc consts  --      1.4631                 1.4767                 1.4689
 IR Inten    --      5.6883                 3.6236                 5.4339

                     67                     68                     69
                      A                      A                      A
 Frequencies --   1538.6185              1541.2151              1545.6926
 Red. masses --      1.0496                 1.0539                 1.0596
 Frc consts  --      1.4640                 1.4749                 1.4915
 IR Inten    --      3.6604                 1.1474                11.2808

                     70                     71                     72
                      A                      A                      A
 Frequencies --   1802.6046              2970.8728              3017.1711
 Red. masses --     11.3948                 1.0804                 1.0648
 Frc consts  --     21.8151                 5.6182                 5.7109
 IR Inten    --    151.2439                15.1097                16.3968

                     73                     74                     75
                      A                      A                      A
 Frequencies --   3021.9391              3036.8246              3037.4223
 Red. masses --      1.0647                 1.0357                 1.0360
 Frc consts  --      5.7283                 5.6274                 5.6315
 IR Inten    --     27.3180                37.1505                25.4730

                     76                     77                     78
                      A                      A                      A
 Frequencies --   3045.9994              3047.0081              3052.0808
 Red. masses --      1.0411                 1.0482                 1.0732
 Frc consts  --      5.6911                 5.7337                 5.8903
 IR Inten    --     13.2338                 7.6718                12.9538

                     79                     80                     81
                      A                      A                      A
 Frequencies --   3054.5574              3066.3466              3093.0449
 Red. masses --      1.0703                 1.0848                 1.1029
 Frc consts  --      5.8835                 6.0098                 6.2169
 IR Inten    --     20.0563                41.5096                35.6158

                     82                     83                     84
                      A                      A                      A
 Frequencies --   3101.5138              3102.2291              3103.8679
 Red. masses --      1.1020                 1.0986                 1.1013
 Frc consts  --      6.2459                 6.2292                 6.2510
 IR Inten    --     24.3603                 4.8059                 4.5636

                     85                     86                     87
                      A                      A                      A
 Frequencies --   3104.6470              3106.1611              3109.6141
 Red. masses --      1.1017                 1.1009                 1.1005
 Frc consts  --      6.2566                 6.2582                 6.2699
 IR Inten    --     13.3362                50.4153                82.6905

                     88                     89                     90
                      A                      A                      A
 Frequencies --   3111.5759              3118.2818              3138.5956
 Red. masses --      1.1009                 1.1007                 1.1003
 Frc consts  --      6.2797                 6.3060                 6.3862
 IR Inten    --     66.8989                29.5977                19.6103

 - Thermochemistry -
 -------------------
 Temperature   298.150 Kelvin.  Pressure   1.00000 Atm.
 Atom     1 has atomic number  8 and mass  15.99491

 Molecular mass:   168.15142 amu.
 Principal axes and moments of inertia in atomic units:
                           1         2         3
     Eigenvalues --  1102.101593054.261873383.15504
           X            0.99995   0.00918  -0.00243
           Y           -0.00906   0.99891   0.04577
           Z            0.00285  -0.04575   0.99895
 This molecule is an asymmetric top.
 Rotational symmetry number  1.
 Warning -- assumption of classical behavior for rotation
           may cause significant error
 Rotational temperatures (Kelvin)      0.07859     0.02836     0.02560
 Rotational constants (GHZ):           1.63755     0.59089     0.53345
 Zero-point vibrational energy     768833.7 (Joules/Mol)
                                  183.75566 (Kcal/Mol)
 Warning -- explicit consideration of  21 degrees of freedom as
           vibrations may cause significant error
 Vibrational temperatures:     75.18   111.48   139.20   247.41   298.79
          (Kelvin)            312.32   342.17   361.64   368.09   373.31
                              394.54   422.06   500.05   538.43   557.98
                              581.19   609.99   649.44   712.98   804.66
                              887.53   948.85  1054.74  1095.72  1200.82
                             1285.83  1298.29  1344.96  1351.58  1357.19
                             1376.84  1403.82  1421.58  1450.18  1484.97
                             1495.67  1523.19  1573.45  1607.51  1677.71
                             1716.18  1730.84  1750.87  1757.02  1788.02
                             1867.01  1880.13  1907.26  1926.63  1930.91
                             1979.70  2006.61  2011.17  2022.05  2055.56
                             2057.78  2084.11  2088.43  2149.16  2172.38
                             2178.76  2187.04  2195.51  2196.61  2202.66
                             2208.39  2213.73  2217.46  2223.91  2593.55
                             4274.42  4341.04  4347.90  4369.31  4370.17
                             4382.51  4383.97  4391.26  4394.83  4411.79
                             4450.20  4462.39  4463.42  4465.77  4466.89
                             4469.07  4474.04  4476.86  4486.51  4515.74

 Zero-point correction=                           0.292833 (Hartree/Particle)
 Thermal correction to Energy=                    0.306158
 Thermal correction to Enthalpy=                  0.307102
 Thermal correction to Gibbs Free Energy=         0.254260
 Sum of electronic and zero-point Energies=           -506.166130
 Sum of electronic and thermal Energies=              -506.152806
 Sum of electronic and thermal Enthalpies=            -506.151861
 Sum of electronic and thermal Free Energies=         -506.204703

                     E (Thermal)             CV                S
                      KCal/Mol        Cal/Mol-Kelvin    Cal/Mol-Kelvin
 Total                  192.117             51.995            111.215
 Electronic               0.000              0.000              0.000
 Translational            0.889              2.981             41.267
 Rotational               0.889              2.981             30.811
 Vibrational            190.340             46.034             39.138
 Vibration     1          0.596              1.977              4.730
 Vibration     2          0.599              1.964              3.954
 Vibration     3          0.603              1.951              3.519
 Vibration     4          0.626              1.877              2.414
 Vibration     5          0.641              1.829              2.064
 Vibration     6          0.646              1.815              1.983
 Vibration     7          0.656              1.783              1.819
 Vibration     8          0.663              1.760              1.721
 Vibration     9          0.666              1.753              1.690
 Vibration    10          0.668              1.747              1.665
 Vibration    11          0.677              1.721              1.569
 Vibration    12          0.688              1.686              1.455
 Vibration    13          0.725              1.580              1.177
 Vibration    14          0.745              1.525              1.062
 Vibration    15          0.756              1.496              1.009
 Vibration    16          0.769              1.462              0.948
 Vibration    17          0.786              1.418              0.879
 Vibration    18          0.810              1.358              0.792
 Vibration    19          0.851              1.260              0.669
 Vibration    20          0.915              1.119              0.525
 Vibration    21          0.977              0.996              0.422

 Normal termination of Gaussian 16 at Sat Feb 24 04:42:40 2024.
