 Gaussian 16, Revision A.03,
 Gaussian 16:  EM64M-G16RevA.03 25-Dec-2016

 ---------------------
 # freq b3lyp/6-31g(d)
 ---------------------

 ---------
 good luck
 ---------
 Symbolic Z-matrix:
 Charge =  0 Multiplicity = 1

                         Standard orientation:
 ---------------------------------------------------------------------
 Center     Atomic      Atomic             Coordinates (Angstroms)
 Number     Number       Type             X           Y           Z
 ---------------------------------------------------------------------
      1          8           0       -0.537462    2.003845    0.655986
      2          6           0       -0.130811    1.083366   -0.031127
      3          6           0       -0.948158   -0.185208   -0.306960
      4          6           0       -2.397277   -0.087465    0.222491
      5          6           0       -3.204808    0.945232   -0.582457
      6          6           0       -3.128763   -1.439304    0.216903
      7          6           0       -0.124118   -1.381523    0.243919
      8          6           0        1.310561   -1.413073   -0.306825
      9          6           0        2.113970   -0.112540   -0.069584
     10          6           0        3.449727   -0.184123   -0.828577
     11          6           0        2.400363    0.094468    1.431339
     12          6           0        1.275546    1.080039   -0.612902
     13          1           0       -0.981300   -0.307382   -1.403272
     14          1           0       -2.338212    0.270339    1.258969
     15          1           0       -3.306969    0.630505   -1.630146
     16          1           0       -4.215640    1.050183   -0.171242
     17          1           0       -2.730409    1.929141   -0.560162
     18          1           0       -4.169439   -1.305606    0.534227
     19          1           0       -3.147575   -1.880127   -0.789114
     20          1           0       -2.672365   -2.168125    0.894478
     21          1           0       -0.624454   -2.318749   -0.020241
     22          1           0       -0.112910   -1.336256    1.341282
     23          1           0        1.266041   -1.602526   -1.389707
     24          1           0        1.853345   -2.261524    0.131179
     25          1           0        4.064943   -1.014401   -0.460132
     26          1           0        3.289662   -0.336278   -1.903031
     27          1           0        4.026190    0.740153   -0.701696
     28          1           0        3.000318    0.998482    1.588518
     29          1           0        2.960888   -0.755513    1.839128
     30          1           0        1.484746    0.208491    2.020955
     31          1           0        1.751749    2.037590   -0.378326
     32          1           0        1.203693    0.991623   -1.706873
 ---------------------------------------------------------------------

 SCF Done:  E(RB3LYP) =  -506.459072704     A.U. after   13 cycles

 The electronic state is 1-A.
 Alpha  occ. eigenvalues --  -19.13365 -10.26643 -10.20707 -10.19299 -10.19072
 Alpha  occ. eigenvalues --  -10.18708 -10.18599 -10.18469 -10.17863 -10.17611
 Alpha  occ. eigenvalues --  -10.17134 -10.16346  -1.03218  -0.84589  -0.80669
 Alpha  occ. eigenvalues --   -0.75390  -0.72708  -0.68839  -0.68143  -0.67507
 Alpha  occ. eigenvalues --   -0.61127  -0.57289  -0.54394  -0.52455  -0.47425
 Alpha  occ. eigenvalues --   -0.46245  -0.45484  -0.44229  -0.43905  -0.43162
 Alpha  occ. eigenvalues --   -0.41617  -0.40324  -0.39531  -0.39180  -0.38245
 Alpha  occ. eigenvalues --   -0.37977  -0.37413  -0.36391  -0.35391  -0.34642
 Alpha  occ. eigenvalues --   -0.33628  -0.33030  -0.32147  -0.31834  -0.30968
 Alpha  occ. eigenvalues --   -0.30340  -0.23345
 Alpha virt. eigenvalues --   -0.01219   0.07635   0.09401   0.10331   0.12592
 Alpha virt. eigenvalues --    0.12847   0.13156   0.13986   0.14696   0.15281
 Alpha virt. eigenvalues --    0.16048   0.16104   0.16819   0.17549   0.18240

 Mulliken charges:
               1
     1  O   -0.458738
     2  C    0.444205
     3  C   -0.159233
     4  C   -0.059659
     5  C   -0.457987
     6  C   -0.454807
     7  C   -0.289846
     8  C   -0.265402
     9  C    0.083676
    10  C   -0.444919
    11  C   -0.454310
    12  C   -0.334606
    13  H    0.129457
    14  H    0.139941
    15  H    0.128198
    16  H    0.139053
    17  H    0.168265
    18  H    0.143461
    19  H    0.134885
    20  H    0.143939
    21  H    0.149074
    22  H    0.145077
    23  H    0.127565
    24  H    0.133955
    25  H    0.142399
    26  H    0.138676
    27  H    0.144132
    28  H    0.147600
    29  H    0.140840
    30  H    0.156498
    31  H    0.155017
    32  H    0.143596
 Sum of Mulliken charges =  -0.00000

 Dipole moment (field-independent basis, Debye):
    X=              1.1893    Y=             -2.1938    Z=             -1.1611  Tot=              2.7523
 Quadrupole moment (field-independent basis, Debye-Ang):
   XX=            -75.1361   YY=            -81.3858   ZZ=            -76.0110
   XY=              1.9481   XZ=              0.4419   YZ=             -2.7929

  Exact polarizability: 133.827  -1.115 109.954  -1.746   1.460  99.228
 Approx polarizability: 159.818  -4.948 164.707  -3.923   9.253 156.936

                      1                      2                      3
                      A                      A                      A
 Frequencies --     60.5757                72.4605               106.1441
 Red. masses --      3.0868                 2.7744                 4.4514
 Frc consts  --      0.0067                 0.0086                 0.0295
 IR Inten    --      0.2472                 0.1194                 2.2450

                      4                      5                      6
                      A                      A                      A
 Frequencies --    176.4535               197.9259               219.9053
 Red. masses --      2.8961                 2.2528                 1.1390
 Frc consts  --      0.0531                 0.0520                 0.0325
 IR Inten    --      1.9194                 0.2599                 0.4887

                      7                      8                      9
                      A                      A                      A
 Frequencies --    230.7312               253.4052               261.9224
 Red. masses --      1.0729                 1.2392                 2.2472
 Frc consts  --      0.0337                 0.0469                 0.0908
 IR Inten    --      0.0380                 0.4549                 1.7847

                     10                     11                     12
                      A                      A                      A
 Frequencies --    271.9330               290.6886               293.3168
 Red. masses --      1.5177                 2.1516                 1.6948
 Frc consts  --      0.0661                 0.1071                 0.0859
 IR Inten    --      0.3241                 0.1223                 1.8509

                     13                     14                     15
                      A                      A                      A
 Frequencies --    364.6468               372.1103               391.8713
 Red. masses --      2.1786                 3.2339                 2.3771
 Frc consts  --      0.1707                 0.2638                 0.2151
 IR Inten    --      0.2552                 0.7320                 0.2312

                     16                     17                     18
                      A                      A                      A
 Frequencies --    412.2615               433.0964               450.2023
 Red. masses --      2.1901                 2.3863                 2.3166
 Frc consts  --      0.2193                 0.2637                 0.2766
 IR Inten    --      0.4171                 0.4483                 1.9925

                     19                     20                     21
                      A                      A                      A
 Frequencies --    463.1462               539.8978               609.3200
 Red. masses --      2.7025                 2.5570                 4.0330
 Frc consts  --      0.3416                 0.4391                 0.8822
 IR Inten    --      0.1395                 2.6912                 7.3248

                     22                     23                     24
                      A                      A                      A
 Frequencies --    667.4992               737.9721               772.3967
 Red. masses --      4.4709                 2.1927                 2.5311
 Frc consts  --      1.1737                 0.7036                 0.8897
 IR Inten    --      2.2469                 2.9274                 2.5912

                     25                     26                     27
                      A                      A                      A
 Frequencies --    850.2974               894.4644               903.2966
 Red. masses --      2.1787                 2.1924                 2.0866
 Frc consts  --      0.9281                 1.0335                 1.0031
 IR Inten    --      1.4005                 0.2136                 0.3099

                     28                     29                     30
                      A                      A                      A
 Frequencies --    933.9067               940.3179               942.1437
 Red. masses --      1.9861                 1.2442                 1.7478
 Frc consts  --      1.0206                 0.6482                 0.9141
 IR Inten    --      0.0729                 3.4271                 4.2743

                     31                     32                     33
                      A                      A                      A
 Frequencies --    957.6331               974.0411               994.0777
 Red. masses --      1.6127                 1.4588                 1.6706
 Frc consts  --      0.8714                 0.8155                 0.9726
 IR Inten    --      2.3706                 0.3927                 2.4857

                     34                     35                     36
                      A                      A                      A
 Frequencies --   1011.8753              1016.2064              1042.9998
 Red. masses --      2.0349                 1.6461                 1.4050
 Frc consts  --      1.2276                 1.0015                 0.9005
 IR Inten    --      2.1679                 2.1024                 0.2378

                     37                     38                     39
                      A                      A                      A
 Frequencies --   1069.0775              1090.6732              1127.9086
 Red. masses --      2.2978                 1.7611                 1.6047
 Frc consts  --      1.5473                 1.2343                 1.2028
 IR Inten    --      2.1403                26.5319                 1.2803

                     40                     41                     42
                      A                      A                      A
 Frequencies --   1166.5529              1186.0119              1201.8694
 Red. masses --      2.1288                 1.8799                 1.7038
 Frc consts  --      1.7069                 1.5580                 1.4501
 IR Inten    --      2.9418                 1.9678                29.0575

                     43                     44                     45
                      A                      A                      A
 Frequencies --   1210.8543              1219.0289              1237.4917
 Red. masses --      1.7459                 1.9068                 1.7719
 Frc consts  --      1.5081                 1.6695                 1.5987
 IR Inten    --      3.8250                 8.5422                23.9984

                     46                     47                     48
                      A                      A                      A
 Frequencies --   1296.1157              1303.7008              1321.9719
 Red. masses --      1.9371                 1.5010                 1.4934
 Frc consts  --      1.9173                 1.5031                 1.5377
 IR Inten    --      4.4254                 1.2937                 4.1916

                     49                     50                     51
                      A                      A                      A
 Frequencies --   1335.0768              1340.4608              1360.6297
 Red. masses --      1.5711                 1.3990                 1.4117
 Frc consts  --      1.6500                 1.4811                 1.5398
 IR Inten    --     12.2895                 2.3245                 3.4188

                     52                     53                     54
                      A                      A                      A
 Frequencies --   1383.7053              1397.9631              1412.3085
 Red. masses --      1.3693                 1.4997                 1.5505
 Frc consts  --      1.5447                 1.7268                 1.8222
 IR Inten    --      2.5835                 1.8198                11.9436

                     55                     56                     57
                      A                      A                      A
 Frequencies --   1427.9267              1430.6480              1447.6364
 Red. masses --      1.2596                 1.2394                 1.2276
 Frc consts  --      1.5132                 1.4946                 1.5158
 IR Inten    --      5.4259                 6.1531                 4.0000

                     58                     59                     60
                      A                      A                      A
 Frequencies --   1452.0376              1497.6893              1509.1396
 Red. masses --      1.2244                 1.0930                 1.0727
 Frc consts  --      1.5210                 1.4445                 1.4394
 IR Inten    --      6.7318                 3.8765                 0.7246

                     61                     62                     63
                      A                      A                      A
 Frequencies --   1514.6255              1518.5402              1525.4767
 Red. masses --      1.0498                 1.0518                 1.0585
 Frc consts  --      1.4189                 1.4290                 1.4513
 IR Inten    --      0.6602                 2.2376                 9.6521

                     64                     65                     66
                      A                      A                      A
 Frequencies --   1526.7572              1531.3873              1534.5956
 Red. masses --      1.0711                 1.0554                 1.0570
 Frc consts  --      1.4710                 1.4583                 1.4666
 IR Inten    --      3.8658                 0.8463                 2.7465

                     67                     68                     69
                      A                      A                      A
 Frequencies --   1535.6141              1542.9080              1549.3491
 Red. masses --      1.0559                 1.0609                 1.0475
 Frc consts  --      1.4671                 1.4880                 1.4815
 IR Inten    --      4.3726                 6.7902                 8.9188

                     70                     71                     72
                      A                      A                      A
 Frequencies --   1800.8805              2984.7747              3018.9880
 Red. masses --     11.1158                 1.0804                 1.0637
 Frc consts  --     21.2402                 5.6712                 5.7122
 IR Inten    --    146.9513                 8.2167                23.6201

                     73                     74                     75
                      A                      A                      A
 Frequencies --   3030.4339              3035.3204              3037.0246
 Red. masses --      1.0622                 1.0407                 1.0395
 Frc consts  --      5.7473                 5.6491                 5.6491
 IR Inten    --     12.5276                17.0805                32.0356

                     76                     77                     78
                      A                      A                      A
 Frequencies --   3037.9404              3043.6577              3048.0910
 Red. masses --      1.0520                 1.0637                 1.0415
 Frc consts  --      5.7205                 5.8059                 5.7010
 IR Inten    --     21.4610                27.4909                 8.7688

                     79                     80                     81
                      A                      A                      A
 Frequencies --   3049.9367              3066.0126              3096.0450
 Red. masses --      1.0717                 1.0944                 1.0989
 Frc consts  --      5.8734                 6.0612                 6.2060
 IR Inten    --     28.0040                44.7555                 2.3596

                     82                     83                     84
                      A                      A                      A
 Frequencies --   3098.1448              3102.9378              3104.2915
 Red. masses --      1.0992                 1.1019                 1.0983
 Frc consts  --      6.2160                 6.2508                 6.2356
 IR Inten    --     36.4900                20.3282                77.2730

                     85                     86                     87
                      A                      A                      A
 Frequencies --   3104.9984              3107.7732              3112.5025
 Red. masses --      1.1016                 1.1002                 1.1004
 Frc consts  --      6.2572                 6.2607                 6.2808
 IR Inten    --      4.6136                29.1464                61.5926

                     88                     89                     90
                      A                      A                      A
 Frequencies --   3119.9590              3122.1054              3148.6286
 Red. masses --      1.1001                 1.1008                 1.0980
 Frc consts  --      6.3095                 6.3218                 6.4133
 IR Inten    --     32.9159                32.9056                16.4724

 - Thermochemistry -
 -------------------
 Temperature   298.150 Kelvin.  Pressure   1.00000 Atm.
 Atom     1 has atomic number  8 and mass  15.99491

 Molecular mass:   168.15142 amu.
 Principal axes and moments of inertia in atomic units:
                           1         2         3
     Eigenvalues --  1059.354223088.594993562.41749
           X            0.99997   0.00703   0.00242
           Y           -0.00696   0.99960  -0.02745
           Z           -0.00261   0.02743   0.99962
 This molecule is an asymmetric top.
 Rotational symmetry number  1.
 Warning -- assumption of classical behavior for rotation
           may cause significant error
 Rotational temperatures (Kelvin)      0.08176     0.02804     0.02431
 Rotational constants (GHZ):           1.70362     0.58432     0.50661
 Zero-point vibrational energy     769123.0 (Joules/Mol)
                                  183.82481 (Kcal/Mol)
 Warning -- explicit consideration of  21 degrees of freedom as
           vibrations may cause significant error
 Vibrational temperatures:     87.15   104.25   152.72   253.88   284.77
          (Kelvin)            316.39   331.97   364.59   376.85   391.25
                              418.24   422.02   524.65   535.38   563.82
                              593.15   623.13   647.74   666.36   776.79
                              876.68   960.38  1061.78  1111.31  1223.39
                             1286.93  1299.64  1343.68  1352.91  1355.53
                             1377.82  1401.43  1430.26  1455.86  1462.09
                             1500.64  1538.16  1569.24  1622.81  1678.41
                             1706.41  1729.22  1742.15  1753.91  1780.47
                             1864.82  1875.73  1902.02  1920.88  1928.62
                             1957.64  1990.84  2011.36  2032.00  2054.47
                             2058.38  2082.83  2089.16  2154.84  2171.32
                             2179.21  2184.84  2194.82  2196.66  2203.32
                             2207.94  2209.41  2219.90  2229.17  2591.07
                             4294.43  4343.65  4360.12  4367.15  4369.60
                             4370.92  4379.14  4385.52  4388.18  4411.31
                             4454.52  4457.54  4464.44  4466.38  4467.40
                             4471.39  4478.20  4488.93  4492.01  4530.17

 Zero-point correction=                           0.292943 (Hartree/Particle)
 Thermal correction to Energy=                    0.306202
 Thermal correction to Enthalpy=                  0.307146
 Thermal correction to Gibbs Free Energy=         0.254549
 Sum of electronic and zero-point Energies=           -506.166129
 Sum of electronic and thermal Energies=              -506.152871
 Sum of electronic and thermal Enthalpies=            -506.151927
 Sum of electronic and thermal Free Energies=         -506.204524

                     E (Thermal)             CV                S
                      KCal/Mol        Cal/Mol-Kelvin    Cal/Mol-Kelvin
 Total                  192.145             51.938            110.700
 Electronic               0.000              0.000              0.000
 Translational            0.889              2.981             41.267
 Rotational               0.889              2.981             30.834
 Vibrational            190.367             45.976             38.599
 Vibration     1          0.597              1.973              4.438
 Vibration     2          0.599              1.967              4.085
 Vibration     3          0.605              1.944              3.338
 Vibration     4          0.628              1.871              2.366
 Vibration     5          0.637              1.843              2.152
 Vibration     6          0.647              1.811              1.960
 Vibration     7          0.652              1.794              1.873
 Vibration     8          0.665              1.757              1.707
 Vibration     9          0.669              1.743              1.649
 Vibration    10          0.675              1.725              1.584
 Vibration    11          0.687              1.691              1.470
 Vibration    12          0.688              1.686              1.455
 Vibration    13          0.738              1.545              1.102
 Vibration    14          0.744              1.529              1.071
 Vibration    15          0.759              1.488              0.993
 Vibration    16          0.776              1.444              0.919
 Vibration    17          0.794              1.398              0.849
 Vibration    18          0.809              1.360              0.795
 Vibration    19          0.821              1.332              0.757
 Vibration    20          0.895              1.162              0.566
 Vibration    21          0.968              1.012              0.434

 Normal termination of Gaussian 16 at Sat Feb 24 04:46:06 2024.
