 Gaussian 16, Revision A.03,
 Gaussian 16:  EM64M-G16RevA.03 25-Dec-2016

 ---------------------
 # freq b3lyp/6-31g(d)
 ---------------------

 ---------
 good luck
 ---------
 Symbolic Z-matrix:
 Charge =  0 Multiplicity = 1

                         Standard orientation:
 ---------------------------------------------------------------------
 Center     Atomic      Atomic             Coordinates (Angstroms)
 Number     Number       Type             X           Y           Z
 ---------------------------------------------------------------------
      1          8           0        0.000000    2.736278   -0.332506
      2          6           0        0.000000    1.589406    0.073818
      3          6           0        1.284584    0.817344    0.342993
      4          6           0        1.281588   -0.575572   -0.327602
      5          6           0        2.547002   -1.363774    0.028868
      6          6           0       -0.000000   -1.343778    0.039129
      7          6           0       -1.281588   -0.575572   -0.327601
      8          6           0       -2.547002   -1.363774    0.028868
      9          6           0       -1.284584    0.817345    0.342993
     10          1           0        1.375328    0.681129    1.432806
     11          1           0        2.132778    1.425422    0.013161
     12          1           0        1.275412   -0.417794   -1.417185
     13          1           0        2.601403   -1.551001    1.109077
     14          1           0        2.564635   -2.334832   -0.479946
     15          1           0        3.451433   -0.816215   -0.260589
     16          1           0       -0.000000   -2.319935   -0.464447
     17          1           0        0.000000   -1.553459    1.121049
     18          1           0       -1.275412   -0.417794   -1.417184
     19          1           0       -2.564635   -2.334832   -0.479946
     20          1           0       -3.451434   -0.816215   -0.260590
     21          1           0       -2.601404   -1.551002    1.109077
     22          1           0       -1.375328    0.681129    1.432806
     23          1           0       -2.132777    1.425423    0.013162
 ---------------------------------------------------------------------

 SCF Done:  E(RB3LYP) =  -388.521718448     A.U. after   14 cycles

 The electronic state is 1-A.
 Alpha  occ. eigenvalues --  -19.13116 -10.26731 -10.20021 -10.20020 -10.18787
 Alpha  occ. eigenvalues --  -10.18786 -10.18735 -10.18103 -10.18103  -1.02987
 Alpha  occ. eigenvalues --   -0.84149  -0.78435  -0.73466  -0.68823  -0.68554
 Alpha  occ. eigenvalues --   -0.58478  -0.57690  -0.53099  -0.47692  -0.47148
 Alpha  occ. eigenvalues --   -0.44803  -0.44140  -0.42705  -0.40363  -0.39858
 Alpha  occ. eigenvalues --   -0.39263  -0.38277  -0.37609  -0.36780  -0.35401
 Alpha  occ. eigenvalues --   -0.33704  -0.32677  -0.31756  -0.31498  -0.23367
 Alpha virt. eigenvalues --   -0.01030   0.07970   0.10026   0.10097   0.13607
 Alpha virt. eigenvalues --    0.13636   0.14963   0.15147   0.15618   0.16409
 Alpha virt. eigenvalues --    0.17226   0.17598   0.18305   0.18680   0.18827

 Mulliken charges:
               1
     1  O   -0.448699
     2  C    0.446027
     3  C   -0.340293
     4  C   -0.090181
     5  C   -0.444470
     6  C   -0.256093
     7  C   -0.090181
     8  C   -0.444470
     9  C   -0.340293
    10  H    0.148027
    11  H    0.159892
    12  H    0.133175
    13  H    0.141225
    14  H    0.144822
    15  H    0.147691
    16  H    0.134361
    17  H    0.124630
    18  H    0.133174
    19  H    0.144822
    20  H    0.147691
    21  H    0.141225
    22  H    0.148027
    23  H    0.159892
 Sum of Mulliken charges =  -0.00000

 Dipole moment (field-independent basis, Debye):
    X=              0.0000    Y=             -2.9838    Z=              0.7322  Tot=              3.0723
 Quadrupole moment (field-independent basis, Debye-Ang):
   XX=            -54.5493   YY=            -66.8872   ZZ=            -55.0915
   XY=             -0.0000   XZ=             -0.0000   YZ=              2.4713

  Exact polarizability:  91.548   0.000  89.981  -0.000  -1.793  69.351
 Approx polarizability: 111.695   0.000 128.449  -0.000  -7.064 110.391

                      1                      2                      3
                      A                      A                      A
 Frequencies --     92.1866               120.0872               154.8352
 Red. masses --      3.8371                 2.4698                 2.3378
 Frc consts  --      0.0192                 0.0210                 0.0330
 IR Inten    --      2.9059                 0.9310                 0.1984

                      4                      5                      6
                      A                      A                      A
 Frequencies --    237.2858               240.3857               250.2674
 Red. masses --      1.0396                 1.2957                 1.7329
 Frc consts  --      0.0345                 0.0441                 0.0639
 IR Inten    --      0.0694                 0.0188                 0.1062

                      7                      8                      9
                      A                      A                      A
 Frequencies --    308.0433               386.4349               389.5474
 Red. masses --      2.9337                 3.6650                 3.1061
 Frc consts  --      0.1640                 0.3225                 0.2777
 IR Inten    --      1.8558                 0.2426                 0.7664

                     10                     11                     12
                      A                      A                      A
 Frequencies --    429.4957               439.8891               477.7301
 Red. masses --      2.0242                 2.2212                 2.1104
 Frc consts  --      0.2200                 0.2532                 0.2838
 IR Inten    --      0.7282                 0.1882                 0.4985

                     13                     14                     15
                      A                      A                      A
 Frequencies --    529.6835               626.2790               837.1992
 Red. masses --      3.0036                 4.3310                 2.8470
 Frc consts  --      0.4965                 1.0009                 1.1757
 IR Inten    --     13.5011                 1.4657                 2.7106

                     16                     17                     18
                      A                      A                      A
 Frequencies --    837.3594               857.6098               861.8414
 Red. masses --      1.5261                 2.7691                 1.7602
 Frc consts  --      0.6305                 1.2000                 0.7703
 IR Inten    --      1.3621                 0.2908                 0.5625

                     19                     20                     21
                      A                      A                      A
 Frequencies --    891.2521               958.5226               971.7913
 Red. masses --      1.7787                 1.6252                 1.7302
 Frc consts  --      0.8324                 0.8798                 0.9627
 IR Inten    --      4.9053                 0.3822                 0.2511

                     22                     23                     24
                      A                      A                      A
 Frequencies --    981.2232              1019.3357              1063.8803
 Red. masses --      1.6270                 1.3928                 2.2369
 Frc consts  --      0.9229                 0.8527                 1.4917
 IR Inten    --      0.1838                 0.1850                 2.2408

                     25                     26                     27
                      A                      A                      A
 Frequencies --   1081.9536              1118.3402              1140.4463
 Red. masses --      1.1510                 2.7156                 2.1723
 Frc consts  --      0.7939                 2.0011                 1.6646
 IR Inten    --      8.4088                 1.0402                 5.1480

                     28                     29                     30
                      A                      A                      A
 Frequencies --   1161.4807              1200.5203              1251.2066
 Red. masses --      2.0714                 2.0891                 1.9043
 Frc consts  --      1.6464                 1.7740                 1.7565
 IR Inten    --      1.3761                 2.8790                48.5305

                     31                     32                     33
                      A                      A                      A
 Frequencies --   1265.7363              1300.2015              1305.4186
 Red. masses --      1.3926                 1.5250                 1.4877
 Frc consts  --      1.3145                 1.5189                 1.4937
 IR Inten    --      0.1593                21.9512                 6.6650

                     34                     35                     36
                      A                      A                      A
 Frequencies --   1320.5231              1321.8917              1384.6489
 Red. masses --      1.2154                 1.3716                 1.3326
 Frc consts  --      1.2487                 1.4121                 1.5053
 IR Inten    --      4.9369                 0.7177                 0.0076

                     37                     38                     39
                      A                      A                      A
 Frequencies --   1384.9004              1392.1194              1414.4122
 Red. masses --      1.3995                 1.4389                 1.6766
 Frc consts  --      1.5815                 1.6430                 1.9762
 IR Inten    --     18.1913                 0.9102                10.2458

                     40                     41                     42
                      A                      A                      A
 Frequencies --   1438.6717              1439.9429              1489.8558
 Red. masses --      1.2263                 1.2504                 1.0987
 Frc consts  --      1.4954                 1.5275                 1.4369
 IR Inten    --      0.7273                 2.5742                 4.3887

                     43                     44                     45
                      A                      A                      A
 Frequencies --   1495.5848              1517.9160              1526.4655
 Red. masses --      1.0884                 1.0896                 1.0510
 Frc consts  --      1.4343                 1.4791                 1.4429
 IR Inten    --      3.3413                 2.0620                 3.1986

                     46                     47                     48
                      A                      A                      A
 Frequencies --   1527.5097              1528.7874              1529.0032
 Red. masses --      1.0433                 1.0490                 1.0541
 Frc consts  --      1.4343                 1.4445                 1.4519
 IR Inten    --     15.5903                 0.0147                 2.7994

                     49                     50                     51
                      A                      A                      A
 Frequencies --   1816.8454              3001.6405              3001.8791
 Red. masses --     10.9996                 1.0727                 1.0764
 Frc consts  --     21.3925                 5.6945                 5.7151
 IR Inten    --    199.0562                 2.9408                 0.4831

                     52                     53                     54
                      A                      A                      A
 Frequencies --   3009.9809              3014.5841              3023.9936
 Red. masses --      1.0704                 1.0750                 1.0714
 Frc consts  --      5.7135                 5.7560                 5.7724
 IR Inten    --     10.7679                 0.6366                57.6109

                     55                     56                     57
                      A                      A                      A
 Frequencies --   3038.8646              3040.1790              3062.3036
 Red. masses --      1.0359                 1.0375                 1.0978
 Frc consts  --      5.6364                 5.6497                 6.0654
 IR Inten    --     38.5173                36.4407                35.4621

                     58                     59                     60
                      A                      A                      A
 Frequencies --   3103.3181              3103.7447              3109.7328
 Red. masses --      1.1011                 1.1006                 1.0968
 Frc consts  --      6.2476                 6.2469                 6.2491
 IR Inten    --      2.7737                61.6756                 5.3100

                     61                     62                     63
                      A                      A                      A
 Frequencies --   3111.0203              3112.5821              3113.3537
 Red. masses --      1.0992                 1.0999                 1.0982
 Frc consts  --      6.2683                 6.2785                 6.2719
 IR Inten    --     23.7389                40.5696                50.6953

 - Thermochemistry -
 -------------------
 Temperature   298.150 Kelvin.  Pressure   1.00000 Atm.
 Atom     1 has atomic number  8 and mass  15.99491

 Molecular mass:   126.10447 amu.
 Principal axes and moments of inertia in atomic units:
                           1         2         3
     Eigenvalues --  1035.693801149.459702042.34115
           X            1.00000   0.00000   0.00000
           Y           -0.00000   0.99998   0.00642
           Z           -0.00000  -0.00642   0.99998
 This molecule is an asymmetric top.
 Rotational symmetry number  1.
 Warning -- assumption of classical behavior for rotation
           may cause significant error
 Rotational temperatures (Kelvin)      0.08363     0.07535     0.04241
 Rotational constants (GHZ):           1.74254     1.57008     0.88366
 Zero-point vibrational energy     545280.2 (Joules/Mol)
                                  130.32509 (Kcal/Mol)
 Warning -- explicit consideration of  13 degrees of freedom as
           vibrations may cause significant error
 Vibrational temperatures:    132.64   172.78   222.77   341.40   345.86
          (Kelvin)            360.08   443.21   555.99   560.47   617.95
                              632.90   687.35   762.10   901.08  1204.54
                             1204.77  1233.91  1240.00  1282.31  1379.10
                             1398.19  1411.76  1466.60  1530.69  1556.69
                             1609.04  1640.85  1671.11  1727.28  1800.21
                             1821.11  1870.70  1878.21  1899.94  1901.91
                             1992.20  1992.56  2002.95  2035.02  2069.93
                             2071.76  2143.57  2151.81  2183.94  2196.24
                             2197.75  2199.58  2199.89  2614.04  4318.69
                             4319.03  4330.69  4337.31  4350.85  4372.25
                             4374.14  4405.97  4464.98  4465.60  4474.21
                             4476.06  4478.31  4479.42

 Zero-point correction=                           0.207686 (Hartree/Particle)
 Thermal correction to Energy=                    0.217047
 Thermal correction to Enthalpy=                  0.217991
 Thermal correction to Gibbs Free Energy=         0.173768
 Sum of electronic and zero-point Energies=           -388.314032
 Sum of electronic and thermal Energies=              -388.304672
 Sum of electronic and thermal Enthalpies=            -388.303728
 Sum of electronic and thermal Free Energies=         -388.347950

                     E (Thermal)             CV                S
                      KCal/Mol        Cal/Mol-Kelvin    Cal/Mol-Kelvin
 Total                  136.199             35.972             93.074
 Electronic               0.000              0.000              0.000
 Translational            0.889              2.981             40.409
 Rotational               0.889              2.981             29.276
 Vibrational            134.421             30.010             23.388
 Vibration     1          0.602              1.955              3.613
 Vibration     2          0.609              1.933              3.099
 Vibration     3          0.620              1.897              2.612
 Vibration     4          0.656              1.784              1.823
 Vibration     5          0.657              1.779              1.800
 Vibration     6          0.663              1.762              1.729
 Vibration     7          0.698              1.658              1.373
 Vibration     8          0.755              1.499              1.014
 Vibration     9          0.757              1.493              1.002
 Vibration    10          0.791              1.406              0.860
 Vibration    11          0.800              1.383              0.827
 Vibration    12          0.834              1.299              0.716
 Vibration    13          0.885              1.184              0.588

 Normal termination of Gaussian 16 at Wed Feb 21 18:48:06 2024.
