 Gaussian 16, Revision A.03,
 Gaussian 16:  EM64M-G16RevA.03 25-Dec-2016

 ---------------------
 # freq b3lyp/6-31g(d)
 ---------------------

 ---------
 good luck
 ---------
 Symbolic Z-matrix:
 Charge =  0 Multiplicity = 1

                         Standard orientation:
 ---------------------------------------------------------------------
 Center     Atomic      Atomic             Coordinates (Angstroms)
 Number     Number       Type             X           Y           Z
 ---------------------------------------------------------------------
      1          8           0        2.680743    0.104131   -0.597191
      2          6           0        1.584957   -0.093867   -0.110817
      3          6           0        1.125668    0.538461    1.208591
      4          6           0       -0.416968    0.639909    1.277032
      5          6           0       -0.865442    1.740711    0.286239
      6          6           0       -0.574198    1.313615   -1.176517
      7          6           0       -0.704362   -0.224390   -1.308989
      8          6           0        0.537222   -1.026951   -0.705178
      9          6           0       -0.063655   -1.782229    0.511588
     10          6           0       -1.122327   -0.749266    0.944780
     11          6           0       -1.879589   -0.644963   -0.396097
     12          1           0        1.518845   -0.080044    2.026920
     13          1           0        1.598616    1.520374    1.314059
     14          1           0       -0.697412    0.942812    2.292087
     15          1           0       -0.355930    2.682527    0.522160
     16          1           0       -1.935854    1.935347    0.415825
     17          1           0        0.420704    1.646364   -1.495265
     18          1           0       -1.289864    1.797704   -1.852265
     19          1           0       -0.842242   -0.501498   -2.358221
     20          1           0        1.012574   -1.664446   -1.454534
     21          1           0       -0.538678   -2.721711    0.209119
     22          1           0        0.681821   -2.029883    1.274066
     23          1           0       -1.746700   -1.082269    1.780222
     24          1           0       -2.296920   -1.620217   -0.671066
     25          1           0       -2.702746    0.075720   -0.409382
 ---------------------------------------------------------------------

 SCF Done:  E(RB3LYP) =  -464.706146443     A.U. after   13 cycles

 The electronic state is 1-A.
 Alpha  occ. eigenvalues --  -19.12865 -10.26414 -10.19712 -10.19680 -10.19505
 Alpha  occ. eigenvalues --  -10.19017 -10.18756 -10.18625 -10.18371 -10.18349
 Alpha  occ. eigenvalues --  -10.18218  -1.02821  -0.87664  -0.78058  -0.76769
 Alpha  occ. eigenvalues --   -0.73668  -0.68672  -0.63469  -0.60912  -0.58600
 Alpha  occ. eigenvalues --   -0.52682  -0.51602  -0.50097  -0.48214  -0.45226
 Alpha  occ. eigenvalues --   -0.44075  -0.42047  -0.40708  -0.40579  -0.39822
 Alpha  occ. eigenvalues --   -0.38371  -0.37407  -0.36614  -0.34864  -0.33364
 Alpha  occ. eigenvalues --   -0.32262  -0.31840  -0.30826  -0.30502  -0.29950
 Alpha  occ. eigenvalues --   -0.22951
 Alpha virt. eigenvalues --   -0.00681   0.07029   0.09951   0.11179   0.12135
 Alpha virt. eigenvalues --    0.12917   0.13261   0.14812   0.16037   0.16373
 Alpha virt. eigenvalues --    0.16594   0.16896   0.18797   0.19628   0.20036

 Mulliken charges:
               1
     1  O   -0.464921
     2  C    0.459198
     3  C   -0.359306
     4  C   -0.108121
     5  C   -0.273180
     6  C   -0.287266
     7  C   -0.104822
     8  C   -0.179902
     9  C   -0.285526
    10  C   -0.116454
    11  C   -0.269046
    12  H    0.166986
    13  H    0.163035
    14  H    0.128800
    15  H    0.137349
    16  H    0.138657
    17  H    0.158711
    18  H    0.138410
    19  H    0.133481
    20  H    0.143530
    21  H    0.143290
    22  H    0.141612
    23  H    0.123913
    24  H    0.134569
    25  H    0.137002
 Sum of Mulliken charges =  -0.00000

 Dipole moment (field-independent basis, Debye):
    X=             -2.9258    Y=             -0.3448    Z=              1.1195  Tot=              3.1516
 Quadrupole moment (field-independent basis, Debye-Ang):
   XX=            -75.7947   YY=            -64.3384   ZZ=            -64.8688
   XY=             -0.7594   XZ=              3.6654   YZ=              0.4143

  Exact polarizability:  99.199   1.739  93.399  -0.276   0.939  90.647
 Approx polarizability: 149.950   4.208 133.334  -4.981   0.330 134.682

                      1                      2                      3
                      A                      A                      A
 Frequencies --    112.4163               201.9945               318.8060
 Red. masses --      5.7510                 2.9081                 2.2418
 Frc consts  --      0.0428                 0.0699                 0.1342
 IR Inten    --      3.8571                 0.3437                 0.2817

                      4                      5                      6
                      A                      A                      A
 Frequencies --    403.7696               409.3528               426.8376
 Red. masses --      2.5812                 1.8257                 4.0556
 Frc consts  --      0.2479                 0.1803                 0.4353
 IR Inten    --      0.6349                 0.3142                 1.8063

                      7                      8                      9
                      A                      A                      A
 Frequencies --    442.8898               481.8955               511.2286
 Red. masses --      4.3942                 4.6637                 2.3602
 Frc consts  --      0.5078                 0.6381                 0.3634
 IR Inten    --      6.8037                 1.7155                 0.0677

                     10                     11                     12
                      A                      A                      A
 Frequencies --    520.1244               598.0933               646.0841
 Red. masses --      2.8625                 3.0380                 3.0202
 Frc consts  --      0.4563                 0.6403                 0.7428
 IR Inten    --      0.8307                 1.4828                 1.0000

                     13                     14                     15
                      A                      A                      A
 Frequencies --    713.7396               753.7551               783.6923
 Red. masses --      4.1803                 2.7628                 1.9180
 Frc consts  --      1.2547                 0.9248                 0.6941
 IR Inten    --      0.3100                 2.7859                 0.3399

                     16                     17                     18
                      A                      A                      A
 Frequencies --    802.4523               857.5673               880.8073
 Red. masses --      3.0627                 3.4881                 2.3308
 Frc consts  --      1.1620                 1.5114                 1.0654
 IR Inten    --      0.7755                 2.5760                 1.6485

                     19                     20                     21
                      A                      A                      A
 Frequencies --    897.4091               905.6178               923.5668
 Red. masses --      2.1753                 2.3693                 2.2740
 Frc consts  --      1.0322                 1.1449                 1.1428
 IR Inten    --      0.4005                 2.6201                 1.4619

                     22                     23                     24
                      A                      A                      A
 Frequencies --    931.0601               961.2420               985.9006
 Red. masses --      2.0235                 2.0664                 2.0554
 Frc consts  --      1.0335                 1.1250                 1.1771
 IR Inten    --      4.0007                 1.3898                 1.9155

                     25                     26                     27
                      A                      A                      A
 Frequencies --    989.4583               999.6811              1040.3003
 Red. masses --      2.2895                 1.8824                 1.9239
 Frc consts  --      1.3207                 1.1084                 1.2267
 IR Inten    --      1.9820                 0.6953                 6.4945

                     28                     29                     30
                      A                      A                      A
 Frequencies --   1052.2870              1092.8493              1101.4016
 Red. masses --      1.6610                 1.7347                 1.6220
 Frc consts  --      1.0836                 1.2207                 1.1593
 IR Inten    --      0.0906                 0.2711                11.9483

                     31                     32                     33
                      A                      A                      A
 Frequencies --   1122.3327              1154.9909              1175.6124
 Red. masses --      1.4530                 1.1028                 1.2186
 Frc consts  --      1.0784                 0.8668                 0.9923
 IR Inten    --      4.0224                 3.9926                 1.8484

                     34                     35                     36
                      A                      A                      A
 Frequencies --   1197.1320              1201.0186              1228.6995
 Red. masses --      1.3240                 1.5358                 1.5441
 Frc consts  --      1.1179                 1.3052                 1.3735
 IR Inten    --      1.0536                 2.3325                20.2452

                     37                     38                     39
                      A                      A                      A
 Frequencies --   1246.8551              1256.3096              1294.8829
 Red. masses --      1.4367                 1.4299                 1.5308
 Frc consts  --      1.3159                 1.3297                 1.5122
 IR Inten    --      2.5451                 5.9721                 1.4401

                     40                     41                     42
                      A                      A                      A
 Frequencies --   1295.1681              1313.0121              1326.3015
 Red. masses --      1.6534                 1.3855                 1.4948
 Frc consts  --      1.6341                 1.4073                 1.5493
 IR Inten    --      1.1434                 0.4190                 0.0781

                     43                     44                     45
                      A                      A                      A
 Frequencies --   1337.2074              1343.3037              1355.6212
 Red. masses --      1.6141                 1.3567                 1.4426
 Frc consts  --      1.7005                 1.4424                 1.5620
 IR Inten    --      0.3911                 0.4209                 0.0804

                     46                     47                     48
                      A                      A                      A
 Frequencies --   1360.9371              1374.2716              1385.8979
 Red. masses --      1.6623                 1.4388                 1.4397
 Frc consts  --      1.8140                 1.6011                 1.6293
 IR Inten    --      2.9108                 9.3206                 0.4352

                     49                     50                     51
                      A                      A                      A
 Frequencies --   1395.7720              1490.1169              1526.3764
 Red. masses --      1.3944                 1.0843                 1.0827
 Frc consts  --      1.6005                 1.4185                 1.4861
 IR Inten    --      0.9640                 8.8180                 3.5006

                     52                     53                     54
                      A                      A                      A
 Frequencies --   1534.7627              1547.2983              1568.6853
 Red. masses --      1.0860                 1.0901                 1.0862
 Frc consts  --      1.5072                 1.5377                 1.5749
 IR Inten    --      3.1412                10.2578                 2.2486

                     55                     56                     57
                      A                      A                      A
 Frequencies --   1821.9337              3044.2309              3049.0185
 Red. masses --     11.7254                 1.0688                 1.0621
 Frc consts  --     22.9321                 5.8355                 5.8176
 IR Inten    --    203.7656                 6.1640                10.3645

                     58                     59                     60
                      A                      A                      A
 Frequencies --   3055.8720              3064.7489              3067.0660
 Red. masses --      1.0663                 1.0661                 1.0794
 Frc consts  --      5.8666                 5.8996                 5.9823
 IR Inten    --     27.3236                21.3976                35.0431

                     61                     62                     63
                      A                      A                      A
 Frequencies --   3070.9264              3078.3293              3089.7004
 Red. masses --      1.0641                 1.1042                 1.0873
 Frc consts  --      5.9123                 6.1648                 6.1154
 IR Inten    --     24.0434                13.1977                75.0619

                     64                     65                     66
                      A                      A                      A
 Frequencies --   3093.0581              3096.3868              3104.7707
 Red. masses --      1.0898                 1.0988                 1.0971
 Frc consts  --      6.1431                 6.2071                 6.2309
 IR Inten    --     24.3138                46.3225                49.8055

                     67                     68                     69
                      A                      A                      A
 Frequencies --   3108.4392              3113.0311              3118.2881
 Red. masses --      1.1015                 1.1022                 1.0881
 Frc consts  --      6.2708                 6.2935                 6.2339
 IR Inten    --     38.0499                29.3016                31.5813

 - Thermochemistry -
 -------------------
 Temperature   298.150 Kelvin.  Pressure   1.00000 Atm.
 Atom     1 has atomic number  8 and mass  15.99491

 Molecular mass:   150.10447 amu.
 Principal axes and moments of inertia in atomic units:
                           1         2         3
     Eigenvalues --  1074.021391445.356461568.21681
           X            0.99933  -0.00466   0.03641
           Y            0.00468   0.99999  -0.00059
           Z           -0.03640   0.00076   0.99934
 This molecule is an asymmetric top.
 Rotational symmetry number  1.
 Warning -- assumption of classical behavior for rotation
           may cause significant error
 Rotational temperatures (Kelvin)      0.08064     0.05993     0.05523
 Rotational constants (GHZ):           1.68036     1.24865     1.15082
 Zero-point vibrational energy     590684.0 (Joules/Mol)
                                  141.17685 (Kcal/Mol)
 Warning -- explicit consideration of  11 degrees of freedom as
           vibrations may cause significant error
 Vibrational temperatures:    161.74   290.63   458.69   580.93   588.97
          (Kelvin)            614.12   637.22   693.34   735.54   748.34
                              860.52   929.57  1026.91  1084.49  1127.56
                             1154.55  1233.85  1267.29  1291.17  1302.98
                             1328.81  1339.59  1383.01  1418.49  1423.61
                             1438.32  1496.76  1514.01  1572.37  1584.67
                             1614.79  1661.77  1691.44  1722.41  1728.00
                             1767.82  1793.95  1807.55  1863.05  1863.46
                             1889.13  1908.25  1923.94  1932.71  1950.44
                             1958.08  1977.27  1994.00  2008.20  2143.95
                             2196.12  2208.18  2226.22  2256.99  2621.36
                             4379.97  4386.86  4396.72  4409.49  4412.82
                             4418.38  4429.03  4445.39  4450.22  4455.01
                             4467.07  4472.35  4478.96  4486.52

 Zero-point correction=                           0.224980 (Hartree/Particle)
 Thermal correction to Energy=                    0.232819
 Thermal correction to Enthalpy=                  0.233763
 Thermal correction to Gibbs Free Energy=         0.192741
 Sum of electronic and zero-point Energies=           -464.481167
 Sum of electronic and thermal Energies=              -464.473327
 Sum of electronic and thermal Enthalpies=            -464.472383
 Sum of electronic and thermal Free Energies=         -464.513406

                     E (Thermal)             CV                S
                      KCal/Mol        Cal/Mol-Kelvin    Cal/Mol-Kelvin
 Total                  146.096             34.880             86.339
 Electronic               0.000              0.000              0.000
 Translational            0.889              2.981             40.929
 Rotational               0.889              2.981             29.278
 Vibrational            144.319             28.918             16.133
 Vibration     1          0.607              1.939              3.227
 Vibration     2          0.639              1.837              2.115
 Vibration     3          0.705              1.638              1.316
 Vibration     4          0.769              1.462              0.949
 Vibration     5          0.774              1.450              0.929
 Vibration     6          0.789              1.412              0.869
 Vibration     7          0.803              1.377              0.818
 Vibration     8          0.838              1.290              0.705
 Vibration     9          0.866              1.225              0.631
 Vibration    10          0.875              1.205              0.610
 Vibration    11          0.956              1.036              0.453

 Normal termination of Gaussian 16 at Thu Feb 22 03:15:11 2024.
