 Gaussian 16, Revision A.03,
 Gaussian 16:  EM64M-G16RevA.03 25-Dec-2016

 ---------------------
 # freq b3lyp/6-31g(d)
 ---------------------

 ---------
 good luck
 ---------
 Symbolic Z-matrix:
 Charge =  0 Multiplicity = 1

                         Standard orientation:
 ---------------------------------------------------------------------
 Center     Atomic      Atomic             Coordinates (Angstroms)
 Number     Number       Type             X           Y           Z
 ---------------------------------------------------------------------
      1          8           0        3.703041   -0.000000    0.470026
      2          6           0        2.596101   -0.000000   -0.034539
      3          6           0        1.847234    1.279636   -0.375584
      4          6           0        0.390165    1.254252    0.132796
      5          6           0       -0.375383    0.000000   -0.344127
      6          6           0       -1.901831   -0.000000    0.021709
      7          6           0       -2.584321   -1.244704   -0.587642
      8          6           0       -2.141338   -0.000001    1.545759
      9          6           0       -2.584321    1.244706   -0.587640
     10          6           0        0.390164   -1.254252    0.132796
     11          6           0        1.847234   -1.279636   -0.375584
     12          1           0        1.841433    1.378697   -1.472298
     13          1           0        2.404069    2.130106    0.029223
     14          1           0       -0.107803    2.170188   -0.200013
     15          1           0        0.399686    1.284750    1.230604
     16          1           0       -0.336613   -0.000001   -1.446952
     17          1           0       -3.669946   -1.191049   -0.443833
     18          1           0       -2.396172   -1.314353   -1.666634
     19          1           0       -2.243284   -2.176501   -0.125075
     20          1           0       -1.714341   -0.886156    2.028383
     21          1           0       -1.714340    0.886151    2.028384
     22          1           0       -3.217232   -0.000001    1.758354
     23          1           0       -2.243282    2.176503   -0.125071
     24          1           0       -2.396173    1.314357   -1.666632
     25          1           0       -3.669944    1.191052   -0.443831
     26          1           0        0.399685   -1.284750    1.230604
     27          1           0       -0.107803   -2.170188   -0.200014
     28          1           0        1.841432   -1.378698   -1.472298
     29          1           0        2.404069   -2.130107    0.029223
 ---------------------------------------------------------------------

 SCF Done:  E(RB3LYP) =  -467.140097171     A.U. after   13 cycles

 The electronic state is 1-A.
 Alpha  occ. eigenvalues --  -19.13091 -10.26654 -10.20283 -10.19472 -10.19056
 Alpha  occ. eigenvalues --  -10.19054 -10.18928 -10.18927 -10.17578 -10.17578
 Alpha  occ. eigenvalues --  -10.17559  -1.02956  -0.84484  -0.80022  -0.75377
 Alpha  occ. eigenvalues --   -0.71355  -0.68696  -0.68603  -0.62400  -0.60324
 Alpha  occ. eigenvalues --   -0.53728  -0.52772  -0.47521  -0.45789  -0.45014
 Alpha  occ. eigenvalues --   -0.44539  -0.44111  -0.42957  -0.41960  -0.41375
 Alpha  occ. eigenvalues --   -0.39252  -0.38404  -0.37706  -0.37437  -0.36660
 Alpha  occ. eigenvalues --   -0.35332  -0.34679  -0.34335  -0.33556  -0.31646
 Alpha  occ. eigenvalues --   -0.30604  -0.30426  -0.23300
 Alpha virt. eigenvalues --   -0.01103   0.07527   0.09714   0.10729   0.11607
 Alpha virt. eigenvalues --    0.12272   0.12652   0.13830   0.15264   0.15275
 Alpha virt. eigenvalues --    0.16180   0.16181   0.16592   0.17521   0.19056

 Mulliken charges:
               1
     1  O   -0.447499
     2  C    0.453820
     3  C   -0.347417
     4  C   -0.288110
     5  C   -0.070566
     6  C    0.102955
     7  C   -0.452580
     8  C   -0.456484
     9  C   -0.452580
    10  C   -0.288110
    11  C   -0.347417
    12  H    0.152646
    13  H    0.161639
    14  H    0.145035
    15  H    0.144934
    16  H    0.110570
    17  H    0.140480
    18  H    0.137598
    19  H    0.144627
    20  H    0.144214
    21  H    0.144214
    22  H    0.141072
    23  H    0.144627
    24  H    0.137598
    25  H    0.140480
    26  H    0.144934
    27  H    0.145035
    28  H    0.152646
    29  H    0.161639
 Sum of Mulliken charges =  -0.00000

 Dipole moment (field-independent basis, Debye):
    X=             -3.0261    Y=             -0.0000    Z=             -1.0917  Tot=              3.2170
 Quadrupole moment (field-independent basis, Debye-Ang):
   XX=            -85.1576   YY=            -67.9673   ZZ=            -68.9242
   XY=              0.0000   XZ=             -4.1580   YZ=              0.0000

  Exact polarizability: 122.042  -0.000  99.210   2.856  -0.000  89.822
 Approx polarizability: 157.935  -0.000 139.237   8.560   0.000 140.061

                      1                      2                      3
                      A                      A                      A
 Frequencies --     37.1248                60.6922               159.2147
 Red. masses --      2.4447                 5.6209                 2.4533
 Frc consts  --      0.0020                 0.0122                 0.0366
 IR Inten    --      0.1296                 3.2751                 1.2906

                      4                      5                      6
                      A                      A                      A
 Frequencies --    165.8393               196.5333               249.2560
 Red. masses --      2.8142                 1.5430                 1.3984
 Frc consts  --      0.0456                 0.0351                 0.0512
 IR Inten    --      0.5613                 0.1167                 0.0113

                      7                      8                      9
                      A                      A                      A
 Frequencies --    255.7191               267.3593               274.7140
 Red. masses --      1.2499                 1.0520                 3.1577
 Frc consts  --      0.0482                 0.0443                 0.1404
 IR Inten    --      0.0969                 0.0084                 0.2438

                     10                     11                     12
                      A                      A                      A
 Frequencies --    333.7186               340.2246               385.6580
 Red. masses --      2.3303                 1.9223                 2.0354
 Frc consts  --      0.1529                 0.1311                 0.1784
 IR Inten    --      0.1130                 0.1020                 0.1426

                     13                     14                     15
                      A                      A                      A
 Frequencies --    420.8365               425.8726               441.6707
 Red. masses --      3.6695                 2.0616                 2.6448
 Frc consts  --      0.3829                 0.2203                 0.3040
 IR Inten    --      4.3719                 1.7977                 0.0028

                     16                     17                     18
                      A                      A                      A
 Frequencies --    475.3250               508.4855               531.7646
 Red. masses --      2.1076                 3.3133                 2.3622
 Frc consts  --      0.2806                 0.5047                 0.3936
 IR Inten    --      0.1298                 6.9607                 0.5574

                     19                     20                     21
                      A                      A                      A
 Frequencies --    671.4113               749.2025               769.7854
 Red. masses --      3.7429                 3.4876                 1.5710
 Frc consts  --      0.9941                 1.1534                 0.5485
 IR Inten    --      1.2605                 0.9529                 3.1363

                     22                     23                     24
                      A                      A                      A
 Frequencies --    782.5500               849.2940               920.8020
 Red. masses --      2.5871                 2.2480                 1.4045
 Frc consts  --      0.9335                 0.9554                 0.7016
 IR Inten    --      3.8151                 0.7672                 0.0910

                     25                     26                     27
                      A                      A                      A
 Frequencies --    924.1491               940.1552               942.6529
 Red. masses --      2.2414                 1.8246                 1.8089
 Frc consts  --      1.1279                 0.9502                 0.9470
 IR Inten    --      1.4642                 0.0866                 0.4629

                     28                     29                     30
                      A                      A                      A
 Frequencies --    956.0300               969.6107              1004.3334
 Red. masses --      2.1106                 1.2042                 2.0551
 Frc consts  --      1.1366                 0.6670                 1.2213
 IR Inten    --     10.7694                 0.0026                 4.7746

                     31                     32                     33
                      A                      A                      A
 Frequencies --   1033.5028              1049.5367              1053.3575
 Red. masses --      1.8465                 1.5020                 1.6647
 Frc consts  --      1.1620                 0.9748                 1.0883
 IR Inten    --      1.1576                 0.2830                 0.0006

                     34                     35                     36
                      A                      A                      A
 Frequencies --   1080.9148              1126.0027              1134.2048
 Red. masses --      1.4949                 1.5921                 2.1816
 Frc consts  --      1.0291                 1.1893                 1.6535
 IR Inten    --      3.5181                 1.3159                 0.0027

                     37                     38                     39
                      A                      A                      A
 Frequencies --   1187.9210              1206.6765              1250.0563
 Red. masses --      2.0495                 1.5377                 2.4452
 Frc consts  --      1.7040                 1.3192                 2.2512
 IR Inten    --     31.0245                 0.2380                14.3723

                     40                     41                     42
                      A                      A                      A
 Frequencies --   1258.5333              1275.0952              1281.5079
 Red. masses --      1.7677                 2.0254                 1.5941
 Frc consts  --      1.6496                 1.9402                 1.5424
 IR Inten    --     16.8070                 6.7659                 4.2966

                     43                     44                     45
                      A                      A                      A
 Frequencies --   1294.8897              1331.5437              1350.7833
 Red. masses --      1.5168                 1.3717                 1.3478
 Frc consts  --      1.4984                 1.4329                 1.4489
 IR Inten    --      0.0621                 0.8134                 1.8946

                     46                     47                     48
                      A                      A                      A
 Frequencies --   1372.2958              1372.8290              1394.1383
 Red. masses --      1.3384                 1.4713                 1.4667
 Frc consts  --      1.4851                 1.6337                 1.6795
 IR Inten    --      0.1197                13.3496                 1.1528

                     49                     50                     51
                      A                      A                      A
 Frequencies --   1414.5692              1430.0973              1430.5659
 Red. masses --      1.4708                 1.2297                 1.2315
 Frc consts  --      1.7340                 1.4818                 1.4849
 IR Inten    --      0.6900                 3.3828                 8.5211

                     52                     53                     54
                      A                      A                      A
 Frequencies --   1461.2112              1491.1786              1501.2721
 Red. masses --      1.2221                 1.0947                 1.0863
 Frc consts  --      1.5374                 1.4342                 1.4425
 IR Inten    --      5.8188                 5.6694                 9.8426

                     55                     56                     57
                      A                      A                      A
 Frequencies --   1512.6252              1518.1550              1519.0684
 Red. masses --      1.0532                 1.0446                 1.0755
 Frc consts  --      1.4197                 1.4185                 1.4623
 IR Inten    --      0.7772                 0.7471                 1.4170

                     58                     59                     60
                      A                      A                      A
 Frequencies --   1523.9133              1533.2125              1539.2797
 Red. masses --      1.0568                 1.0872                 1.0500
 Frc consts  --      1.4459                 1.5058                 1.4658
 IR Inten    --      0.4115                 2.3732                 4.1937

                     61                     62                     63
                      A                      A                      A
 Frequencies --   1542.6988              1552.0491              1819.9786
 Red. masses --      1.0601                 1.0564                10.9886
 Frc consts  --      1.4865                 1.4993                21.4449
 IR Inten    --      1.7928                13.8427               204.6644

                     64                     65                     66
                      A                      A                      A
 Frequencies --   2978.1206              3016.6070              3023.4413
 Red. masses --      1.0820                 1.0690                 1.0696
 Frc consts  --      5.6539                 5.7316                 5.7607
 IR Inten    --     20.1458                 2.5384                18.7305

                     67                     68                     69
                      A                      A                      A
 Frequencies --   3038.9194              3042.1505              3043.8018
 Red. masses --      1.0374                 1.0377                 1.0648
 Frc consts  --      5.6446                 5.6585                 5.8123
 IR Inten    --     15.2444                20.8683                 9.6279

                     70                     71                     72
                      A                      A                      A
 Frequencies --   3046.9857              3053.8580              3098.9184
 Red. masses --      1.0488                 1.0514                 1.0992
 Frc consts  --      5.7370                 5.7774                 6.2195
 IR Inten    --     22.0960                51.5295                16.0162

                     73                     74                     75
                      A                      A                      A
 Frequencies --   3100.2764              3100.9532              3105.7042
 Red. masses --      1.1014                 1.0993                 1.1010
 Frc consts  --      6.2372                 6.2279                 6.2569
 IR Inten    --      2.1512                23.8413                52.9894

                     76                     77                     78
                      A                      A                      A
 Frequencies --   3110.4744              3113.7092              3115.1024
 Red. masses --      1.1001                 1.0939                 1.0947
 Frc consts  --      6.2710                 6.2488                 6.2589
 IR Inten    --     75.1887                19.6047                22.5256

                     79                     80                     81
                      A                      A                      A
 Frequencies --   3118.1298              3121.7419              3122.2852
 Red. masses --      1.1020                 1.0988                 1.0987
 Frc consts  --      6.3130                 6.3088                 6.3104
 IR Inten    --      1.7567                78.4159                25.6762

 - Thermochemistry -
 -------------------
 Temperature   298.150 Kelvin.  Pressure   1.00000 Atm.
 Atom     1 has atomic number  8 and mass  15.99491

 Molecular mass:   154.13577 amu.
 Principal axes and moments of inertia in atomic units:
                           1         2         3
     Eigenvalues --   822.296412863.177773165.82222
           X            0.99998  -0.00000  -0.00677
           Y            0.00000   1.00000   0.00000
           Z            0.00677  -0.00000   0.99998
 This molecule is an asymmetric top.
 Rotational symmetry number  1.
 Warning -- assumption of classical behavior for rotation
           may cause significant error
 Rotational temperatures (Kelvin)      0.10533     0.03025     0.02736
 Rotational constants (GHZ):           2.19476     0.63033     0.57007
 Zero-point vibrational energy     695059.2 (Joules/Mol)
                                  166.12314 (Kcal/Mol)
 Warning -- explicit consideration of  18 degrees of freedom as
           vibrations may cause significant error
 Vibrational temperatures:     53.41    87.32   229.07   238.61   282.77
          (Kelvin)            358.62   367.92   384.67   395.25   480.15
                              489.51   554.88   605.49   612.74   635.47
                              683.89   731.60   765.09   966.01  1077.94
                             1107.55  1125.91  1221.94  1324.83  1329.64
                             1352.67  1356.27  1375.51  1395.05  1445.01
                             1486.98  1510.05  1515.55  1555.20  1620.07
                             1631.87  1709.15  1736.14  1798.55  1810.75
                             1834.58  1843.80  1863.06  1915.79  1943.48
                             1974.43  1975.19  2005.85  2035.25  2057.59
                             2058.27  2102.36  2145.47  2160.00  2176.33
                             2184.29  2185.60  2192.57  2205.95  2214.68
                             2219.60  2233.05  2618.54  4284.85  4340.22
                             4350.06  4372.33  4376.98  4379.35  4383.93
                             4393.82  4458.65  4460.61  4461.58  4468.42
                             4475.28  4479.93  4481.94  4486.29  4491.49
                             4492.27

 Zero-point correction=                           0.264734 (Hartree/Particle)
 Thermal correction to Energy=                    0.276660
 Thermal correction to Enthalpy=                  0.277605
 Thermal correction to Gibbs Free Energy=         0.227243
 Sum of electronic and zero-point Energies=           -466.875363
 Sum of electronic and thermal Energies=              -466.863437
 Sum of electronic and thermal Enthalpies=            -466.862493
 Sum of electronic and thermal Free Energies=         -466.912854

                     E (Thermal)             CV                S
                      KCal/Mol        Cal/Mol-Kelvin    Cal/Mol-Kelvin
 Total                  173.607             46.485            105.995
 Electronic               0.000              0.000              0.000
 Translational            0.889              2.981             41.008
 Rotational               0.889              2.981             30.389
 Vibrational            171.830             40.523             34.598
 Vibration     1          0.594              1.982              5.407
 Vibration     2          0.597              1.973              4.435
 Vibration     3          0.621              1.892              2.559
 Vibration     4          0.624              1.884              2.482
 Vibration     5          0.636              1.845              2.165
 Vibration     6          0.662              1.764              1.736
 Vibration     7          0.666              1.753              1.691
 Vibration     8          0.672              1.733              1.613
 Vibration     9          0.677              1.720              1.566
 Vibration    10          0.715              1.608              1.242
 Vibration    11          0.720              1.595              1.211
 Vibration    12          0.754              1.501              1.017
 Vibration    13          0.783              1.425              0.889
 Vibration    14          0.788              1.414              0.872
 Vibration    15          0.801              1.379              0.821
 Vibration    16          0.832              1.305              0.723
 Vibration    17          0.864              1.231              0.637
 Vibration    18          0.887              1.180              0.583

 Normal termination of Gaussian 16 at Thu Feb 22 10:52:13 2024.
