 Gaussian 16, Revision A.03,
 Gaussian 16:  EM64M-G16RevA.03 25-Dec-2016

 ---------------------
 # freq b3lyp/6-31g(d)
 ---------------------

 ---------
 good luck
 ---------
 Symbolic Z-matrix:
 Charge =  0 Multiplicity = 1

                         Standard orientation:
 ---------------------------------------------------------------------
 Center     Atomic      Atomic             Coordinates (Angstroms)
 Number     Number       Type             X           Y           Z
 ---------------------------------------------------------------------
      1          8           0       -2.186119    1.008361   -0.928208
      2          6           0       -1.412502    0.228620   -0.416053
      3          6           0       -0.847116    0.270215    1.001876
      4          6           0       -0.672226   -1.237415    1.290989
      5          6           0        0.644711    0.735721    0.881615
      6          6           0        0.835083    2.093012    0.197280
      7          6           0        1.353274   -0.520162    0.223620
      8          6           0        2.214875   -0.260517   -1.015875
      9          6           0        0.174094   -1.514613    0.024916
     10          6           0       -0.781396   -1.009899   -1.078035
     11          1           0       -1.448014    0.870158    1.688336
     12          1           0       -0.131160   -1.431319    2.223937
     13          1           0       -1.618295   -1.791198    1.312131
     14          1           0        1.017178    0.833999    1.909434
     15          1           0        0.466025    2.104278   -0.833142
     16          1           0        0.288352    2.870591    0.743125
     17          1           0        1.891909    2.381492    0.180067
     18          1           0        2.014003   -0.962243    0.980914
     19          1           0        1.665140    0.229422   -1.825669
     20          1           0        2.610395   -1.205276   -1.408386
     21          1           0        3.072366    0.377008   -0.773021
     22          1           0        0.499537   -2.550185   -0.113006
     23          1           0       -0.319480   -0.759007   -2.037419
     24          1           0       -1.571783   -1.744376   -1.283623
 ---------------------------------------------------------------------

 SCF Done:  E(RB3LYP) =  -426.606599994     A.U. after   13 cycles

 The electronic state is 1-A.
 Alpha  occ. eigenvalues --  -19.13217 -10.26571 -10.19879 -10.19570 -10.19402
 Alpha  occ. eigenvalues --  -10.19129 -10.19040 -10.18791 -10.17893 -10.17537
 Alpha  occ. eigenvalues --   -1.03112  -0.87829  -0.77089  -0.75173  -0.70895
 Alpha  occ. eigenvalues --   -0.67461  -0.64409  -0.57909  -0.54949  -0.51634
 Alpha  occ. eigenvalues --   -0.49130  -0.46792  -0.45806  -0.42859  -0.42633
 Alpha  occ. eigenvalues --   -0.40809  -0.39875  -0.38815  -0.38196  -0.37914
 Alpha  occ. eigenvalues --   -0.35932  -0.35366  -0.35214  -0.33602  -0.31300
 Alpha  occ. eigenvalues --   -0.30675  -0.30395  -0.22951
 Alpha virt. eigenvalues --   -0.00961   0.07226   0.10034   0.11062   0.12913
 Alpha virt. eigenvalues --    0.13894   0.14184   0.15695   0.16021   0.16534
 Alpha virt. eigenvalues --    0.16931   0.17940   0.18539   0.19426   0.19807

 Mulliken charges:
               1
     1  O   -0.464443
     2  C    0.462252
     3  C   -0.171098
     4  C   -0.292393
     5  C   -0.101409
     6  C   -0.454392
     7  C   -0.079378
     8  C   -0.457652
     9  C   -0.117819
    10  C   -0.357899
    11  H    0.135518
    12  H    0.140669
    13  H    0.142893
    14  H    0.134849
    15  H    0.158555
    16  H    0.151314
    17  H    0.144004
    18  H    0.127095
    19  H    0.149131
    20  H    0.143796
    21  H    0.147000
    22  H    0.122549
    23  H    0.168103
    24  H    0.168755
 Sum of Mulliken charges =  -0.00000

 Dipole moment (field-independent basis, Debye):
    X=              2.1895    Y=             -1.7582    Z=              1.2697  Tot=              3.0818
 Quadrupole moment (field-independent basis, Debye-Ang):
   XX=            -66.3845   YY=            -61.7379   ZZ=            -61.0775
   XY=              4.4900   XZ=             -2.9019   YZ=              2.2708

  Exact polarizability:  91.082  -1.191  89.805   0.838   0.601  83.890
 Approx polarizability: 129.316  -7.351 128.257   7.092  -2.626 125.348

                      1                      2                      3
                      A                      A                      A
 Frequencies --     75.3745               134.9520               218.5307
 Red. masses --      3.6290                 4.4460                 1.0735
 Frc consts  --      0.0121                 0.0477                 0.0302
 IR Inten    --      1.8524                 3.0742                 0.0284

                      4                      5                      6
                      A                      A                      A
 Frequencies --    247.2203               271.3431               290.8005
 Red. masses --      1.1642                 2.5624                 1.8254
 Frc consts  --      0.0419                 0.1112                 0.0909
 IR Inten    --      0.3590                 0.0065                 0.2852

                      7                      8                      9
                      A                      A                      A
 Frequencies --    349.1560               412.5735               433.9586
 Red. masses --      2.4651                 2.6003                 2.6491
 Frc consts  --      0.1771                 0.2608                 0.2939
 IR Inten    --      0.4480                 2.1746                 1.2735

                     10                     11                     12
                      A                      A                      A
 Frequencies --    471.2098               476.9395               539.3573
 Red. masses --      2.7260                 3.8773                 3.2527
 Frc consts  --      0.3566                 0.5196                 0.5575
 IR Inten    --      1.3547                 3.8875                 2.2137

                     13                     14                     15
                      A                      A                      A
 Frequencies --    602.3767               671.1070               718.4067
 Red. masses --      2.5923                 4.0890                 2.7804
 Frc consts  --      0.5542                 1.0851                 0.8455
 IR Inten    --      2.9709                 1.4011                 0.7084

                     16                     17                     18
                      A                      A                      A
 Frequencies --    762.4333               808.0954               830.5167
 Red. masses --      3.9691                 2.8087                 2.2764
 Frc consts  --      1.3594                 1.0806                 0.9251
 IR Inten    --      2.4516                 1.0492                 3.8105

                     19                     20                     21
                      A                      A                      A
 Frequencies --    898.4034               920.8543               933.7814
 Red. masses --      2.2051                 2.3158                 2.1670
 Frc consts  --      1.0486                 1.1570                 1.1133
 IR Inten    --      6.2300                 1.6689                 0.7286

                     22                     23                     24
                      A                      A                      A
 Frequencies --    952.1755               991.2166              1016.4838
 Red. masses --      1.9197                 1.6426                 1.5661
 Frc consts  --      1.0255                 0.9508                 0.9534
 IR Inten    --      0.5459                 1.5436                 9.5023

                     25                     26                     27
                      A                      A                      A
 Frequencies --   1025.0714              1032.9398              1072.1403
 Red. masses --      1.4485                 1.4497                 1.8306
 Frc consts  --      0.8968                 0.9113                 1.2398
 IR Inten    --      0.3889                 4.0847                 6.5159

                     28                     29                     30
                      A                      A                      A
 Frequencies --   1091.2341              1112.5724              1153.4166
 Red. masses --      1.5895                 1.5417                 1.2659
 Frc consts  --      1.1152                 1.1244                 0.9923
 IR Inten    --      1.2688                14.1580                 2.3306

                     31                     32                     33
                      A                      A                      A
 Frequencies --   1155.7518              1173.2398              1186.5301
 Red. masses --      1.8632                 1.8921                 2.0903
 Frc consts  --      1.4664                 1.5345                 1.7338
 IR Inten    --     18.7465                 1.4320                 4.8066

                     34                     35                     36
                      A                      A                      A
 Frequencies --   1200.8539              1238.5852              1273.9567
 Red. masses --      1.9011                 1.5577                 1.7170
 Frc consts  --      1.6152                 1.4080                 1.6418
 IR Inten    --      8.1643                 0.7709                 1.5757

                     37                     38                     39
                      A                      A                      A
 Frequencies --   1300.1973              1314.9402              1330.1499
 Red. masses --      1.4116                 1.6139                 1.5939
 Frc consts  --      1.4060                 1.6441                 1.6616
 IR Inten    --      0.5857                 0.3671                 4.9236

                     40                     41                     42
                      A                      A                      A
 Frequencies --   1358.4986              1369.7664              1383.0764
 Red. masses --      1.4926                 1.4433                 1.3683
 Frc consts  --      1.6230                 1.5956                 1.5422
 IR Inten    --      2.4993                 4.1896                 1.6964

                     43                     44                     45
                      A                      A                      A
 Frequencies --   1393.2221              1440.0480              1450.8662
 Red. masses --      1.3640                 1.2730                 1.2200
 Frc consts  --      1.5599                 1.5554                 1.5131
 IR Inten    --      2.1792                 2.2654                 5.1687

                     46                     47                     48
                      A                      A                      A
 Frequencies --   1484.6603              1520.9516              1523.9133
 Red. masses --      1.0878                 1.0489                 1.0466
 Frc consts  --      1.4127                 1.4296                 1.4321
 IR Inten    --     11.9791                 0.1624                 4.0337

                     49                     50                     51
                      A                      A                      A
 Frequencies --   1534.8673              1537.9576              1542.1873
 Red. masses --      1.0884                 1.0499                 1.0541
 Frc consts  --      1.5107                 1.4631                 1.4771
 IR Inten    --      4.9257                10.3819                 1.6013

                     52                     53                     54
                      A                      A                      A
 Frequencies --   1845.3859              3023.5729              3043.9634
 Red. masses --     12.1960                 1.0858                 1.0813
 Frc consts  --     24.4704                 5.8484                 5.9032
 IR Inten    --    220.5923                 5.8407                40.8531

                     55                     56                     57
                      A                      A                      A
 Frequencies --   3048.4474              3054.5237              3055.2733
 Red. masses --      1.0382                 1.0569                 1.0491
 Frc consts  --      5.6842                 5.8101                 5.7697
 IR Inten    --     16.8148                22.1674                21.9820

                     58                     59                     60
                      A                      A                      A
 Frequencies --   3061.9571              3099.5109              3106.9687
 Red. masses --      1.0596                 1.0880                 1.1078
 Frc consts  --      5.8534                 6.1584                 6.3005
 IR Inten    --     30.1619                39.3879                26.2543

                     61                     62                     63
                      A                      A                      A
 Frequencies --   3107.4767              3114.8948              3116.7371
 Red. masses --      1.1016                 1.1012                 1.0988
 Frc consts  --      6.2676                 6.2954                 6.2890
 IR Inten    --     39.0750                10.7996                26.1940

                     64                     65                     66
                      A                      A                      A
 Frequencies --   3123.2119              3131.1333              3133.2315
 Red. masses --      1.0985                 1.0988                 1.0904
 Frc consts  --      6.3135                 6.3472                 6.3070
 IR Inten    --      9.5573                45.8515                31.6738

 - Thermochemistry -
 -------------------
 Temperature   298.150 Kelvin.  Pressure   1.00000 Atm.
 Atom     1 has atomic number  8 and mass  15.99491

 Molecular mass:   138.10447 amu.
 Principal axes and moments of inertia in atomic units:
                           1         2         3
     Eigenvalues --  1028.471761300.645771532.45925
           X            0.99418   0.09576  -0.04930
           Y           -0.09427   0.99504   0.03166
           Z            0.05209  -0.02683   0.99828
 This molecule is an asymmetric top.
 Rotational symmetry number  1.
 Warning -- assumption of classical behavior for rotation
           may cause significant error
 Rotational temperatures (Kelvin)      0.08422     0.06659     0.05652
 Rotational constants (GHZ):           1.75478     1.38757     1.17768
 Zero-point vibrational energy     564010.2 (Joules/Mol)
                                  134.80168 (Kcal/Mol)
 Warning -- explicit consideration of  13 degrees of freedom as
           vibrations may cause significant error
 Vibrational temperatures:    108.45   194.17   314.42   355.69   390.40
          (Kelvin)            418.40   502.36   593.60   624.37   677.97
                              686.21   776.01   866.69   965.57  1033.63
                             1096.97  1162.67  1194.93  1292.60  1324.90
                             1343.50  1369.97  1426.14  1462.49  1474.85
                             1486.17  1542.57  1570.04  1600.74  1659.51
                             1662.87  1688.03  1707.15  1727.76  1782.05
                             1832.94  1870.69  1891.91  1913.79  1954.58
                             1970.79  1989.94  2004.54  2071.91  2087.47
                             2136.10  2188.31  2192.57  2208.33  2212.78
                             2218.86  2655.10  4350.25  4379.58  4386.04
                             4394.78  4395.86  4405.47  4459.50  4470.23
                             4470.97  4481.64  4484.29  4493.61  4505.00
                             4508.02

 Zero-point correction=                           0.214820 (Hartree/Particle)
 Thermal correction to Energy=                    0.223901
 Thermal correction to Enthalpy=                  0.224845
 Thermal correction to Gibbs Free Energy=         0.181277
 Sum of electronic and zero-point Energies=           -426.391780
 Sum of electronic and thermal Energies=              -426.382699
 Sum of electronic and thermal Enthalpies=            -426.381755
 Sum of electronic and thermal Free Energies=         -426.425323

                     E (Thermal)             CV                S
                      KCal/Mol        Cal/Mol-Kelvin    Cal/Mol-Kelvin
 Total                  140.500             36.818             91.696
 Electronic               0.000              0.000              0.000
 Translational            0.889              2.981             40.680
 Rotational               0.889              2.981             29.107
 Vibrational            138.722             30.857             21.909
 Vibration     1          0.599              1.965              4.008
 Vibration     2          0.613              1.918              2.874
 Vibration     3          0.646              1.813              1.971
 Vibration     4          0.661              1.767              1.750
 Vibration     5          0.675              1.726              1.588
 Vibration     6          0.687              1.691              1.469
 Vibration     7          0.726              1.577              1.170
 Vibration     8          0.776              1.443              0.918
 Vibration     9          0.795              1.396              0.846
 Vibration    10          0.828              1.314              0.734
 Vibration    11          0.834              1.301              0.718
 Vibration    12          0.894              1.163              0.567
 Vibration    13          0.961              1.027              0.446

 Normal termination of Gaussian 16 at Wed Feb 21 19:17:58 2024.
