 Gaussian 16, Revision A.03,
 Gaussian 16:  EM64M-G16RevA.03 25-Dec-2016

 ---------------------
 # freq b3lyp/6-31g(d)
 ---------------------

 ---------
 good luck
 ---------
 Symbolic Z-matrix:
 Charge =  0 Multiplicity = 1

                         Standard orientation:
 ---------------------------------------------------------------------
 Center     Atomic      Atomic             Coordinates (Angstroms)
 Number     Number       Type             X           Y           Z
 ---------------------------------------------------------------------
      1          8           0       -2.893898   -1.330153   -0.813706
      2          6           0       -1.761696   -1.092516   -0.440529
      3          6           0       -0.571330   -2.012638   -0.709410
      4          6           0        0.681672   -1.438425   -0.023273
      5          6           0        1.012814   -0.051899   -0.641561
      6          6           0        2.333757    0.545689   -0.107281
      7          6           0        3.566531   -0.333505   -0.357579
      8          6           0       -0.264217    0.882999   -0.509128
      9          6           0        0.003992    2.320853   -0.012745
     10          6           0       -1.219674    3.244862   -0.068805
     11          6           0       -1.352663    0.149901    0.335507
     12          6           0       -0.780928   -0.302019    1.701854
     13          6           0        0.386508   -1.307669    1.485443
     14          1           0       -0.437219   -2.104719   -1.796029
     15          1           0       -0.814060   -3.017885   -0.340681
     16          1           0        1.522904   -2.122142   -0.179657
     17          1           0        1.175945   -0.220900   -1.716276
     18          1           0        2.257581    0.762517    0.965886
     19          1           0        2.504420    1.512100   -0.594890
     20          1           0        3.539033   -1.264876    0.218172
     21          1           0        3.653747   -0.601358   -1.418225
     22          1           0        4.482199    0.197639   -0.074025
     23          1           0       -0.683494    0.998057   -1.518853
     24          1           0        0.788323    2.761081   -0.640025
     25          1           0        0.406158    2.311973    1.008242
     26          1           0       -0.933895    4.274502    0.174279
     27          1           0       -2.000948    2.948328    0.638782
     28          1           0       -1.665863    3.251452   -1.071069
     29          1           0       -2.238450    0.775613    0.467305
     30          1           0       -0.441118    0.579318    2.257349
     31          1           0       -1.580026   -0.752035    2.301343
     32          1           0        0.124635   -2.294653    1.886181
     33          1           0        1.282719   -0.986598    2.026886
 ---------------------------------------------------------------------

 SCF Done:  E(RB3LYP) =  -544.549952956     A.U. after   13 cycles

 The electronic state is 1-A.
 Alpha  occ. eigenvalues --  -19.12704 -10.26147 -10.19561 -10.19207 -10.19119
 Alpha  occ. eigenvalues --  -10.18939 -10.18686 -10.18552 -10.18543 -10.18532
 Alpha  occ. eigenvalues --  -10.18428 -10.17836 -10.17639  -1.02621  -0.86160
 Alpha  occ. eigenvalues --   -0.78751  -0.78166  -0.74346  -0.72602  -0.70387
 Alpha  occ. eigenvalues --   -0.63592  -0.62909  -0.59727  -0.58016  -0.54652
 Alpha  occ. eigenvalues --   -0.50682  -0.49142  -0.47342  -0.45888  -0.44149
 Alpha  occ. eigenvalues --   -0.43590  -0.42926  -0.41419  -0.40499  -0.40169
 Alpha  occ. eigenvalues --   -0.39724  -0.38409  -0.38134  -0.37646  -0.36361
 Alpha  occ. eigenvalues --   -0.35515  -0.34859  -0.34465  -0.34083  -0.33638
 Alpha  occ. eigenvalues --   -0.32546  -0.29819  -0.29561  -0.28694  -0.22692
 Alpha virt. eigenvalues --   -0.00734   0.06359   0.08800   0.09818   0.10370
 Alpha virt. eigenvalues --    0.11618   0.13070   0.13215   0.13764   0.15431
 Alpha virt. eigenvalues --    0.15982   0.16175   0.16883   0.17180   0.17791

 Mulliken charges:
               1
     1  O   -0.460101
     2  C    0.449503
     3  C   -0.363199
     4  C   -0.106321
     5  C   -0.088271
     6  C   -0.261391
     7  C   -0.453228
     8  C   -0.110638
     9  C   -0.259936
    10  C   -0.453607
    11  C   -0.172098
    12  C   -0.291163
    13  C   -0.281042
    14  H    0.166046
    15  H    0.165809
    16  H    0.125667
    17  H    0.119263
    18  H    0.134213
    19  H    0.137084
    20  H    0.148474
    21  H    0.143240
    22  H    0.144605
    23  H    0.132128
    24  H    0.138262
    25  H    0.135481
    26  H    0.144147
    27  H    0.151544
    28  H    0.147281
    29  H    0.141260
    30  H    0.145830
    31  H    0.151015
    32  H    0.138005
    33  H    0.142137
 Sum of Mulliken charges =  -0.00000

 Dipole moment (field-independent basis, Debye):
    X=              3.0229    Y=              0.8423    Z=              0.9026  Tot=              3.2653
 Quadrupole moment (field-independent basis, Debye-Ang):
   XX=            -92.5698   YY=            -80.1702   ZZ=            -80.2323
   XY=             -4.3711   XZ=             -3.9505   YZ=             -1.5045

  Exact polarizability: 129.879  -0.036 124.477   0.684   1.168 105.064
 Approx polarizability: 179.243   4.799 167.116   5.014   2.597 162.910

 ******    1 imaginary frequencies (negative Signs) ******

                      1                      2                      3
                      A                      A                      A
 Frequencies --    -18.3061                86.3372                92.5564
 Red. masses --      3.3689                 2.3555                 1.9289
 Frc consts  --      0.0007                 0.0103                 0.0097
 IR Inten    --      1.0954                 0.9982                 0.0599

                      4                      5                      6
                      A                      A                      A
 Frequencies --     98.8147               173.2358               209.2449
 Red. masses --      3.3549                 2.4999                 2.5817
 Frc consts  --      0.0193                 0.0442                 0.0666
 IR Inten    --      2.4730                 0.1756                 0.3459

                      7                      8                      9
                      A                      A                      A
 Frequencies --    210.6751               226.2066               257.7444
 Red. masses --      1.5130                 1.5688                 1.3858
 Frc consts  --      0.0396                 0.0473                 0.0542
 IR Inten    --      0.0283                 0.0403                 0.1780

                     10                     11                     12
                      A                      A                      A
 Frequencies --    280.4542               316.4737               337.4920
 Red. masses --      1.6972                 2.8372                 3.5399
 Frc consts  --      0.0787                 0.1674                 0.2376
 IR Inten    --      0.0300                 0.0702                 0.9957

                     13                     14                     15
                      A                      A                      A
 Frequencies --    395.0539               408.2150               435.0762
 Red. masses --      2.7393                 2.9361                 3.2349
 Frc consts  --      0.2519                 0.2883                 0.3608
 IR Inten    --      0.9148                 1.8751                 1.1939

                     16                     17                     18
                      A                      A                      A
 Frequencies --    480.1246               547.4168               577.8787
 Red. masses --      3.7437                 3.3872                 3.2254
 Frc consts  --      0.5085                 0.5980                 0.6346
 IR Inten    --     10.0823                 1.7478                 0.7122

                     19                     20                     21
                      A                      A                      A
 Frequencies --    613.1454               631.5918               730.5002
 Red. masses --      3.0827                 3.6347                 2.5679
 Frc consts  --      0.6828                 0.8543                 0.8074
 IR Inten    --      0.0165                 1.3004                 1.3739

                     22                     23                     24
                      A                      A                      A
 Frequencies --    737.7132               777.9593               821.4948
 Red. masses --      2.0725                 2.0376                 1.3251
 Frc consts  --      0.6645                 0.7266                 0.5269
 IR Inten    --      0.5615                 2.7669                 2.0688

                     25                     26                     27
                      A                      A                      A
 Frequencies --    840.5962               844.7939               862.9718
 Red. masses --      1.4149                 2.1745                 1.8921
 Frc consts  --      0.5891                 0.9143                 0.8302
 IR Inten    --      6.2423                 0.9326                 2.3888

                     28                     29                     30
                      A                      A                      A
 Frequencies --    891.0322               936.8571               951.2717
 Red. masses --      2.1237                 1.8818                 2.1620
 Frc consts  --      0.9934                 0.9731                 1.1527
 IR Inten    --      1.1986                 5.0490                 0.5901

                     31                     32                     33
                      A                      A                      A
 Frequencies --    967.4402               986.8943              1016.8890
 Red. masses --      2.4932                 2.6667                 2.4598
 Frc consts  --      1.3749                 1.5302                 1.4987
 IR Inten    --      3.1210                 2.0542                 1.5710

                     34                     35                     36
                      A                      A                      A
 Frequencies --   1022.7581              1056.4434              1062.8816
 Red. masses --      1.8513                 2.3114                 2.5310
 Frc consts  --      1.1410                 1.5199                 1.6846
 IR Inten    --      0.7091                 0.2516                 0.4871

                     37                     38                     39
                      A                      A                      A
 Frequencies --   1077.8076              1085.3364              1101.5090
 Red. masses --      1.5350                 2.8561                 2.0113
 Frc consts  --      1.0506                 1.9822                 1.4378
 IR Inten    --      9.6238                 5.9497                 1.7987

                     40                     41                     42
                      A                      A                      A
 Frequencies --   1110.2091              1129.8974              1148.5804
 Red. masses --      1.6983                 1.5147                 1.2879
 Frc consts  --      1.2333                 1.1394                 1.0010
 IR Inten    --     11.9605                 0.0843                 9.5657

                     43                     44                     45
                      A                      A                      A
 Frequencies --   1170.1096              1195.0857              1224.2302
 Red. masses --      2.3412                 1.1311                 1.9026
 Frc consts  --      1.8886                 0.9518                 1.6801
 IR Inten    --      1.5206                 0.5039                14.5544

                     46                     47                     48
                      A                      A                      A
 Frequencies --   1256.3200              1268.8433              1279.1195
 Red. masses --      1.5254                 1.2609                 1.3590
 Frc consts  --      1.4185                 1.1961                 1.3100
 IR Inten    --     14.3388                 1.0805                 0.4541

                     49                     50                     51
                      A                      A                      A
 Frequencies --   1303.6239              1319.8677              1327.9625
 Red. masses --      1.4055                 1.4661                 1.3563
 Frc consts  --      1.4073                 1.5048                 1.4092
 IR Inten    --      0.7094                 1.0417                 5.5058

                     52                     53                     54
                      A                      A                      A
 Frequencies --   1331.7217              1345.6996              1355.8896
 Red. masses --      1.3426                 1.3515                 1.5266
 Frc consts  --      1.4029                 1.4419                 1.6536
 IR Inten    --      1.6511                 4.5502                 1.7240

                     55                     56                     57
                      A                      A                      A
 Frequencies --   1363.8385              1371.4930              1391.4546
 Red. masses --      1.3247                 1.3671                 1.3152
 Frc consts  --      1.4518                 1.5151                 1.5003
 IR Inten    --      0.2188                 7.7857                 5.0132

                     58                     59                     60
                      A                      A                      A
 Frequencies --   1395.1765              1400.4381              1412.0795
 Red. masses --      1.4690                 1.4003                 1.3887
 Frc consts  --      1.6848                 1.6181                 1.6315
 IR Inten    --      0.5914                 0.8741                 1.2620

                     61                     62                     63
                      A                      A                      A
 Frequencies --   1412.5091              1442.0335              1443.8899
 Red. masses --      1.3879                 1.2329                 1.2337
 Frc consts  --      1.6315                 1.5105                 1.5154
 IR Inten    --      0.7803                 2.9052                 1.1034

                     64                     65                     66
                      A                      A                      A
 Frequencies --   1475.1533              1507.4018              1524.0852
 Red. masses --      1.0865                 1.0742                 1.0565
 Frc consts  --      1.3930                 1.4381                 1.4459
 IR Inten    --      9.3579                 2.2084                 0.0076

                     67                     68                     69
                      A                      A                      A
 Frequencies --   1526.5916              1530.2754              1530.5316
 Red. masses --      1.0619                 1.0540                 1.0542
 Frc consts  --      1.4581                 1.4543                 1.4549
 IR Inten    --      0.2780                 1.7545                11.4765

                     70                     71                     72
                      A                      A                      A
 Frequencies --   1538.7882              1539.5103              1551.1550
 Red. masses --      1.0609                 1.0587                 1.0895
 Frc consts  --      1.4801                 1.4784                 1.5445
 IR Inten    --      5.0001                 1.1424                 8.8099

                     73                     74                     75
                      A                      A                      A
 Frequencies --   1824.4349              2998.1144              3021.7262
 Red. masses --     11.8414                 1.0847                 1.0837
 Frc consts  --     23.2225                 5.7444                 5.8302
 IR Inten    --    223.0060                 8.5606                33.3587

                     76                     77                     78
                      A                      A                      A
 Frequencies --   3040.4008              3042.2505              3044.4941
 Red. masses --      1.0609                 1.0611                 1.0387
 Frc consts  --      5.7779                 5.7861                 5.6722
 IR Inten    --     36.6462                15.8237                25.5636

                     79                     80                     81
                      A                      A                      A
 Frequencies --   3047.2385              3049.9301              3053.2363
 Red. masses --      1.0379                 1.0638                 1.0611
 Frc consts  --      5.6781                 5.8301                 5.8279
 IR Inten    --     24.7317                13.9917                16.1262

                     82                     83                     84
                      A                      A                      A
 Frequencies --   3061.7399              3072.1464              3077.2063
 Red. masses --      1.0656                 1.0988                 1.0900
 Frc consts  --      5.8853                 6.1099                 6.0810
 IR Inten    --     38.8760                11.4570                34.7139

                     85                     86                     87
                      A                      A                      A
 Frequencies --   3081.3887              3083.8872              3087.6635
 Red. masses --      1.1001                 1.0981                 1.0992
 Frc consts  --      6.1544                 6.1533                 6.1742
 IR Inten    --     15.8644                12.0463                34.7696

                     88                     89                     90
                      A                      A                      A
 Frequencies --   3103.2137              3108.6301              3110.9671
 Red. masses --      1.1036                 1.1013                 1.1015
 Frc consts  --      6.2614                 6.2705                 6.2812
 IR Inten    --     42.1060                26.2918                68.0824

                     91                     92                     93
                      A                      A                      A
 Frequencies --   3112.3669              3119.8452              3125.2414
 Red. masses --      1.0909                 1.1011                 1.0971
 Frc consts  --      6.2260                 6.3144                 6.3135
 IR Inten    --     23.2691                44.0423                55.3088

 - Thermochemistry -
 -------------------
 Temperature   298.150 Kelvin.  Pressure   1.00000 Atm.
 Atom     1 has atomic number  8 and mass  15.99491

 Molecular mass:   180.15142 amu.
 Principal axes and moments of inertia in atomic units:
                           1         2         3
     Eigenvalues --  1958.988622384.178983452.51884
           X            0.99166  -0.12791  -0.01567
           Y            0.12783   0.99178  -0.00621
           Z            0.01634   0.00415   0.99986
 This molecule is an asymmetric top.
 Rotational symmetry number  1.
 Warning -- assumption of classical behavior for rotation
           may cause significant error
 Rotational temperatures (Kelvin)      0.04421     0.03633     0.02509
 Rotational constants (GHZ):           0.92126     0.75697     0.52273
    1 imaginary frequencies ignored.
 Zero-point vibrational energy     792768.7 (Joules/Mol)
                                  189.47626 (Kcal/Mol)
 Warning -- explicit consideration of  18 degrees of freedom as
           vibrations may cause significant error
 Vibrational temperatures:    124.22   133.17   142.17   249.25   301.06
          (Kelvin)            303.11   325.46   370.84   403.51   455.34
                              485.58   568.39   587.33   625.98   690.79
                              787.61   831.44   882.18   908.72  1051.03
                             1061.40  1119.31  1181.95  1209.43  1215.47
                             1241.62  1282.00  1347.93  1368.67  1391.93
                             1419.92  1463.08  1471.52  1519.99  1529.25
                             1550.72  1561.56  1584.83  1597.34  1625.67
                             1652.55  1683.53  1719.46  1761.39  1807.56
                             1825.58  1840.37  1875.62  1899.00  1910.64
                             1916.05  1936.16  1950.82  1962.26  1973.27
                             2001.99  2007.35  2014.92  2031.67  2032.29
                             2074.76  2077.44  2122.42  2168.81  2192.82
                             2196.42  2201.72  2202.09  2213.97  2215.01
                             2231.77  2624.95  4313.62  4347.59  4374.46
                             4377.12  4380.35  4384.30  4388.17  4392.93
                             4405.16  4420.13  4427.41  4433.43  4437.03
                             4442.46  4464.83  4472.63  4475.99  4478.00
                             4488.76  4496.53

 Zero-point correction=                           0.301950 (Hartree/Particle)
 Thermal correction to Energy=                    0.314041
 Thermal correction to Enthalpy=                  0.314985
 Thermal correction to Gibbs Free Energy=         0.264481
 Sum of electronic and zero-point Energies=           -544.248003
 Sum of electronic and thermal Energies=              -544.235912
 Sum of electronic and thermal Enthalpies=            -544.234968
 Sum of electronic and thermal Free Energies=         -544.285472

                     E (Thermal)             CV                S
                      KCal/Mol        Cal/Mol-Kelvin    Cal/Mol-Kelvin
 Total                  197.064             48.919            106.296
 Electronic               0.000              0.000              0.000
 Translational            0.889              2.981             41.473
 Rotational               0.889              2.981             31.156
 Vibrational            195.286             42.957             33.667
 Vibration     1          0.601              1.959              3.741
 Vibration     2          0.602              1.954              3.605
 Vibration     3          0.604              1.950              3.478
 Vibration     4          0.627              1.875              2.400
 Vibration     5          0.642              1.827              2.050
 Vibration     6          0.643              1.825              2.038
 Vibration     7          0.650              1.801              1.909
 Vibration     8          0.667              1.750              1.677
 Vibration     9          0.680              1.710              1.531
 Vibration    10          0.703              1.642              1.328
 Vibration    11          0.718              1.601              1.224
 Vibration    12          0.762              1.481              0.981
 Vibration    13          0.773              1.452              0.933
 Vibration    14          0.796              1.394              0.842
 Vibration    15          0.836              1.294              0.710
 Vibration    16          0.903              1.145              0.550
 Vibration    17          0.934              1.079              0.489
 Vibration    18          0.972              1.004              0.428

 Normal termination of Gaussian 16 at Sat Feb 24 03:26:02 2024.
