 Gaussian 16, Revision A.03,
 Gaussian 16:  EM64M-G16RevA.03 25-Dec-2016

 ---------------------
 # freq b3lyp/6-31g(d)
 ---------------------

 ---------
 good luck
 ---------
 Symbolic Z-matrix:
 Charge =  0 Multiplicity = 1

                         Standard orientation:
 ---------------------------------------------------------------------
 Center     Atomic      Atomic             Coordinates (Angstroms)
 Number     Number       Type             X           Y           Z
 ---------------------------------------------------------------------
      1          8           0       -2.779447    0.256988   -1.649566
      2          6           0       -1.982349   -0.050556   -0.785141
      3          6           0       -1.785985   -1.481086   -0.280538
      4          6           0       -0.502816   -1.528508    0.570711
      5          6           0        0.655413   -0.945077   -0.287891
      6          6           0        2.050418   -1.366876    0.219598
      7          6           0        3.147324   -1.313795   -0.853135
      8          6           0        0.414507    0.607771   -0.488735
      9          6           0        1.418915    1.541672    0.222989
     10          6           0        1.201203    3.031769   -0.071585
     11          6           0       -1.058550    0.930579   -0.076684
     12          6           0       -1.247553    0.717841    1.446524
     13          6           0       -0.719848   -0.688336    1.846445
     14          1           0       -2.671530   -1.771829    0.302817
     15          1           0       -1.741578   -2.158266   -1.141933
     16          1           0       -0.270630   -2.566322    0.838963
     17          1           0        0.549757   -1.408553   -1.280387
     18          1           0        2.350873   -0.771217    1.089709
     19          1           0        1.979192   -2.402646    0.578940
     20          1           0        3.279286   -0.307851   -1.266589
     21          1           0        2.904141   -1.980437   -1.689690
     22          1           0        4.113332   -1.632262   -0.444724
     23          1           0        0.502152    0.824816   -1.561673
     24          1           0        1.398972    1.380589    1.308114
     25          1           0        2.431880    1.275656   -0.097531
     26          1           0        0.259125    3.405146    0.343906
     27          1           0        1.185530    3.223500   -1.151718
     28          1           0        2.009877    3.632117    0.360357
     29          1           0       -1.337204    1.943145   -0.378727
     30          1           0       -0.731672    1.507561    2.002182
     31          1           0       -2.311013    0.819508    1.694196
     32          1           0        0.221596   -0.608891    2.402638
     33          1           0       -1.430580   -1.192064    2.512330
 ---------------------------------------------------------------------

 SCF Done:  E(RB3LYP) =  -544.549357515     A.U. after   13 cycles

 The electronic state is 1-A.
 Alpha  occ. eigenvalues --  -19.12785 -10.26219 -10.19603 -10.19182 -10.19076
 Alpha  occ. eigenvalues --  -10.18945 -10.18796 -10.18625 -10.18548 -10.18493
 Alpha  occ. eigenvalues --  -10.18407 -10.17774 -10.17734  -1.02689  -0.86277
 Alpha  occ. eigenvalues --   -0.78829  -0.78123  -0.74160  -0.72650  -0.70526
 Alpha  occ. eigenvalues --   -0.64233  -0.62224  -0.59422  -0.57987  -0.55221
 Alpha  occ. eigenvalues --   -0.50402  -0.49447  -0.47220  -0.45627  -0.45251
 Alpha  occ. eigenvalues --   -0.43595  -0.41898  -0.41321  -0.40503  -0.40254
 Alpha  occ. eigenvalues --   -0.39819  -0.38454  -0.38244  -0.37852  -0.36094
 Alpha  occ. eigenvalues --   -0.35689  -0.34992  -0.34510  -0.34109  -0.33340
 Alpha  occ. eigenvalues --   -0.32658  -0.29897  -0.29605  -0.28751  -0.22768
 Alpha virt. eigenvalues --   -0.00720   0.06464   0.08999   0.09811   0.10167
 Alpha virt. eigenvalues --    0.11835   0.12375   0.13793   0.14004   0.15134
 Alpha virt. eigenvalues --    0.15741   0.16167   0.17023   0.17502   0.17763

 Mulliken charges:
               1
     1  O   -0.460391
     2  C    0.451385
     3  C   -0.364714
     4  C   -0.105623
     5  C   -0.092594
     6  C   -0.262585
     7  C   -0.453180
     8  C   -0.098064
     9  C   -0.271498
    10  C   -0.453272
    11  C   -0.171626
    12  C   -0.300834
    13  C   -0.273891
    14  H    0.163770
    15  H    0.166461
    16  H    0.119893
    17  H    0.123373
    18  H    0.137788
    19  H    0.131166
    20  H    0.150126
    21  H    0.144577
    22  H    0.144847
    23  H    0.134984
    24  H    0.136541
    25  H    0.143210
    26  H    0.150778
    27  H    0.147344
    28  H    0.144364
    29  H    0.142163
    30  H    0.149817
    31  H    0.147628
    32  H    0.140431
    33  H    0.137628
 Sum of Mulliken charges =  -0.00000

 Dipole moment (field-independent basis, Debye):
    X=              2.2991    Y=             -0.7184    Z=              2.1353  Tot=              3.2189
 Quadrupole moment (field-independent basis, Debye-Ang):
   XX=            -88.5611   YY=            -79.1676   ZZ=            -84.5634
   XY=              2.3759   XZ=             -7.3662   YZ=              1.2997

  Exact polarizability: 127.947   0.810 122.137   1.665  -0.867 109.187
 Approx polarizability: 173.089  -0.640 166.561   9.731  -2.690 170.552

                      1                      2                      3
                      A                      A                      A
 Frequencies --     48.2774                93.3286               103.9867
 Red. masses --      3.7967                 4.1527                 2.3055
 Frc consts  --      0.0052                 0.0213                 0.0147
 IR Inten    --      1.3962                 2.2226                 0.7286

                      4                      5                      6
                      A                      A                      A
 Frequencies --    141.7737               177.0015               185.5650
 Red. masses --      2.2834                 1.8059                 1.6199
 Frc consts  --      0.0270                 0.0333                 0.0329
 IR Inten    --      0.1916                 0.1887                 0.2259

                      7                      8                      9
                      A                      A                      A
 Frequencies --    217.1054               236.5599               280.1410
 Red. masses --      1.9267                 1.2246                 1.9669
 Frc consts  --      0.0535                 0.0404                 0.0909
 IR Inten    --      0.1058                 0.0486                 0.3271

                     10                     11                     12
                      A                      A                      A
 Frequencies --    297.3967               304.1653               327.3758
 Red. masses --      2.7144                 2.4326                 2.1534
 Frc consts  --      0.1414                 0.1326                 0.1360
 IR Inten    --      0.3332                 0.2205                 0.0516

                     13                     14                     15
                      A                      A                      A
 Frequencies --    389.6838               417.9051               450.7513
 Red. masses --      3.4351                 3.8486                 2.8353
 Frc consts  --      0.3073                 0.3960                 0.3394
 IR Inten    --      0.8910                 3.3635                 2.3159

                     16                     17                     18
                      A                      A                      A
 Frequencies --    480.9147               511.7177               594.7265
 Red. masses --      3.5730                 3.4313                 2.7525
 Frc consts  --      0.4869                 0.5294                 0.5736
 IR Inten    --      0.8582                 7.1660                 1.2337

                     19                     20                     21
                      A                      A                      A
 Frequencies --    614.7045               635.7574               727.7758
 Red. masses --      3.3110                 3.4020                 2.8320
 Frc consts  --      0.7371                 0.8102                 0.8838
 IR Inten    --      1.3416                 1.3453                 1.7299

                     22                     23                     24
                      A                      A                      A
 Frequencies --    759.0686               787.8250               810.7031
 Red. masses --      2.0673                 1.6996                 1.4949
 Frc consts  --      0.7018                 0.6215                 0.5789
 IR Inten    --      0.3683                 3.3077                 0.8761

                     25                     26                     27
                      A                      A                      A
 Frequencies --    830.7049               851.0222               864.2433
 Red. masses --      1.4010                 2.2110                 2.0116
 Frc consts  --      0.5696                 0.9434                 0.8853
 IR Inten    --      8.2245                 0.7717                 2.9682

                     28                     29                     30
                      A                      A                      A
 Frequencies --    888.1880               941.3599               951.7785
 Red. masses --      2.1341                 2.1146                 1.8529
 Frc consts  --      0.9919                 1.1041                 0.9889
 IR Inten    --      1.3356                 4.0920                 1.2584

                     31                     32                     33
                      A                      A                      A
 Frequencies --    969.2067               990.5532              1013.3225
 Red. masses --      2.5885                 2.4822                 2.5717
 Frc consts  --      1.4326                 1.4350                 1.5558
 IR Inten    --      5.8212                 0.8652                 0.3913

                     34                     35                     36
                      A                      A                      A
 Frequencies --   1022.3303              1054.2061              1060.9344
 Red. masses --      1.8828                 2.3683                 2.1853
 Frc consts  --      1.1594                 1.5507                 1.4492
 IR Inten    --      0.9523                 0.4453                 1.3841

                     37                     38                     39
                      A                      A                      A
 Frequencies --   1078.9879              1091.7316              1096.1224
 Red. masses --      1.7662                 1.9991                 2.1430
 Frc consts  --      1.2115                 1.4038                 1.5170
 IR Inten    --      0.2197                 0.2747                12.7858

                     40                     41                     42
                      A                      A                      A
 Frequencies --   1111.1767              1127.2537              1134.2995
 Red. masses --      1.7184                 1.5631                 1.4009
 Frc consts  --      1.2501                 1.1703                 1.0620
 IR Inten    --     18.2960                 2.2637                 3.8736

                     43                     44                     45
                      A                      A                      A
 Frequencies --   1171.2948              1196.0153              1225.4142
 Red. masses --      1.7360                 1.3176                 1.6150
 Frc consts  --      1.4033                 1.1105                 1.4289
 IR Inten    --      0.3490                 0.3548                 9.9378

                     46                     47                     48
                      A                      A                      A
 Frequencies --   1254.9098              1267.9272              1283.5564
 Red. masses --      1.6325                 1.2876                 1.4969
 Frc consts  --      1.5147                 1.2196                 1.4530
 IR Inten    --     16.4319                 0.4005                 0.2241

                     49                     50                     51
                      A                      A                      A
 Frequencies --   1295.4037              1306.0118              1326.6427
 Red. masses --      1.3060                 1.3354                 1.4040
 Frc consts  --      1.2913                 1.3420                 1.4558
 IR Inten    --      0.3583                 0.0596                 5.6357

                     52                     53                     54
                      A                      A                      A
 Frequencies --   1329.8054              1344.2813              1352.9647
 Red. masses --      1.4153                 1.4015                 1.3557
 Frc consts  --      1.4746                 1.4922                 1.4621
 IR Inten    --      1.6479                 5.9156                 1.2589

                     55                     56                     57
                      A                      A                      A
 Frequencies --   1362.9872              1374.4743              1381.8199
 Red. masses --      1.3460                 1.4638                 1.3644
 Frc consts  --      1.4733                 1.6293                 1.5350
 IR Inten    --      3.4669                 1.2748                 3.6062

                     58                     59                     60
                      A                      A                      A
 Frequencies --   1386.0649              1401.1619              1410.3114
 Red. masses --      1.3795                 1.3967                 1.4073
 Frc consts  --      1.5615                 1.6155                 1.6492
 IR Inten    --      3.6990                 1.8757                 0.7576

                     61                     62                     63
                      A                      A                      A
 Frequencies --   1420.8287              1441.9749              1443.9352
 Red. masses --      1.4114                 1.2305                 1.2304
 Frc consts  --      1.6787                 1.5074                 1.5114
 IR Inten    --      2.2699                 3.2801                 2.4944

                     64                     65                     66
                      A                      A                      A
 Frequencies --   1479.3355              1513.1295              1524.5190
 Red. masses --      1.0881                 1.0711                 1.0654
 Frc consts  --      1.4030                 1.4448                 1.4589
 IR Inten    --      8.8128                 2.0465                 0.1407

                     67                     68                     69
                      A                      A                      A
 Frequencies --   1527.7024              1528.9583              1531.6315
 Red. masses --      1.0545                 1.0465                 1.0490
 Frc consts  --      1.4500                 1.4414                 1.4499
 IR Inten    --      1.7679                 2.2600                 6.3415

                     70                     71                     72
                      A                      A                      A
 Frequencies --   1537.1317              1540.3295              1551.6021
 Red. masses --      1.0550                 1.0795                 1.0873
 Frc consts  --      1.4687                 1.5090                 1.5423
 IR Inten    --      4.8409                 5.1708                 5.8899

                     73                     74                     75
                      A                      A                      A
 Frequencies --   1824.7585              2998.1982              3033.7933
 Red. masses --     11.8512                 1.0842                 1.0794
 Frc consts  --     23.2501                 5.7423                 5.8533
 IR Inten    --    222.3627                16.1793                29.5113

                     76                     77                     78
                      A                      A                      A
 Frequencies --   3035.2032              3038.4638              3045.9204
 Red. masses --      1.0715                 1.0653                 1.0374
 Frc consts  --      5.8159                 5.7944                 5.6707
 IR Inten    --      4.7863                14.8717                28.0086

                     79                     80                     81
                      A                      A                      A
 Frequencies --   3046.6570              3047.2149              3054.1159
 Red. masses --      1.0380                 1.0646                 1.0653
 Frc consts  --      5.6765                 5.8242                 5.8547
 IR Inten    --     23.1256                12.1610                38.9613

                     82                     83                     84
                      A                      A                      A
 Frequencies --   3056.6223              3063.7664              3076.7863
 Red. masses --      1.0721                 1.0765                 1.0941
 Frc consts  --      5.9018                 5.9537                 6.1024
 IR Inten    --     27.0266                64.0361                21.6652

                     85                     86                     87
                      A                      A                      A
 Frequencies --   3082.4093              3089.1858              3090.4223
 Red. masses --      1.0997                 1.0980                 1.0977
 Frc consts  --      6.1559                 6.1738                 6.1767
 IR Inten    --      9.5118                15.3533                24.4076

                     88                     89                     90
                      A                      A                      A
 Frequencies --   3102.4337              3109.8982              3110.5622
 Red. masses --      1.1026                 1.0973                 1.0949
 Frc consts  --      6.2530                 6.2525                 6.2418
 IR Inten    --     33.1557                 7.9389                19.1871

                     91                     92                     93
                      A                      A                      A
 Frequencies --   3111.0714              3117.2953              3123.4768
 Red. masses --      1.1003                 1.1007                 1.0992
 Frc consts  --      6.2745                 6.3021                 6.3186
 IR Inten    --     94.4208                60.3860                39.5143

 - Thermochemistry -
 -------------------
 Temperature   298.150 Kelvin.  Pressure   1.00000 Atm.
 Atom     1 has atomic number  8 and mass  15.99491

 Molecular mass:   180.15142 amu.
 Principal axes and moments of inertia in atomic units:
                           1         2         3
     Eigenvalues --  1866.953102564.871413217.18914
           X            0.99924   0.01037  -0.03744
           Y           -0.00994   0.99988   0.01162
           Z            0.03756  -0.01123   0.99923
 This molecule is an asymmetric top.
 Rotational symmetry number  1.
 Warning -- assumption of classical behavior for rotation
           may cause significant error
 Rotational temperatures (Kelvin)      0.04639     0.03377     0.02692
 Rotational constants (GHZ):           0.96668     0.70364     0.56097
 Zero-point vibrational energy     793375.4 (Joules/Mol)
                                  189.62128 (Kcal/Mol)
 Warning -- explicit consideration of  19 degrees of freedom as
           vibrations may cause significant error
 Vibrational temperatures:     69.46   134.28   149.61   203.98   254.67
          (Kelvin)            266.99   312.37   340.36   403.06   427.89
                              437.63   471.02   560.67   601.27   648.53
                              691.93   736.25   855.68   884.42   914.71
                             1047.11  1092.13  1133.50  1166.42  1195.20
                             1224.43  1243.45  1277.90  1354.41  1369.40
                             1394.47  1425.19  1457.95  1470.91  1516.77
                             1526.45  1552.42  1570.76  1577.08  1598.74
                             1621.87  1632.00  1685.23  1720.80  1763.10
                             1805.54  1824.26  1846.75  1863.80  1879.06
                             1908.74  1913.29  1934.12  1946.61  1961.03
                             1977.56  1988.13  1994.24  2015.96  2029.12
                             2044.26  2074.68  2077.50  2128.43  2177.06
                             2193.44  2198.02  2199.83  2203.68  2211.59
                             2216.19  2232.41  2625.42  4313.74  4364.95
                             4366.98  4371.67  4382.40  4383.46  4384.26
                             4394.19  4397.80  4408.08  4426.81  4434.90
                             4444.65  4446.43  4463.71  4474.45  4475.41
                             4476.14  4485.09  4493.99

 Zero-point correction=                           0.302181 (Hartree/Particle)
 Thermal correction to Energy=                    0.314967
 Thermal correction to Enthalpy=                  0.315911
 Thermal correction to Gibbs Free Energy=         0.263674
 Sum of electronic and zero-point Energies=           -544.247177
 Sum of electronic and thermal Energies=              -544.234391
 Sum of electronic and thermal Enthalpies=            -544.233446
 Sum of electronic and thermal Free Energies=         -544.285683

                     E (Thermal)             CV                S
                      KCal/Mol        Cal/Mol-Kelvin    Cal/Mol-Kelvin
 Total                  197.645             50.799            109.942
 Electronic               0.000              0.000              0.000
 Translational            0.889              2.981             41.473
 Rotational               0.889              2.981             31.111
 Vibrational            195.867             44.837             37.359
 Vibration     1          0.595              1.978              4.887
 Vibration     2          0.602              1.954              3.589
 Vibration     3          0.605              1.946              3.378
 Vibration     4          0.615              1.911              2.780
 Vibration     5          0.628              1.871              2.360
 Vibration     6          0.632              1.860              2.272
 Vibration     7          0.646              1.815              1.983
 Vibration     8          0.655              1.785              1.829
 Vibration     9          0.680              1.710              1.533
 Vibration    10          0.691              1.679              1.432
 Vibration    11          0.695              1.666              1.394
 Vibration    12          0.711              1.621              1.273
 Vibration    13          0.758              1.492              1.001
 Vibration    14          0.781              1.431              0.899
 Vibration    15          0.810              1.359              0.794
 Vibration    16          0.837              1.292              0.708
 Vibration    17          0.867              1.224              0.629
 Vibration    18          0.952              1.043              0.459
 Vibration    19          0.974              1.001              0.425

 Normal termination of Gaussian 16 at Sat Feb 24 03:30:14 2024.
