 Gaussian 16, Revision A.03,
 Gaussian 16:  EM64M-G16RevA.03 25-Dec-2016

 ---------------------
 # freq b3lyp/6-31g(d)
 ---------------------

 ---------
 good luck
 ---------
 Symbolic Z-matrix:
 Charge =  0 Multiplicity = 1

                         Standard orientation:
 ---------------------------------------------------------------------
 Center     Atomic      Atomic             Coordinates (Angstroms)
 Number     Number       Type             X           Y           Z
 ---------------------------------------------------------------------
      1          8           0        3.350312   -0.064475    0.008879
      2          6           0        2.143635   -0.037756   -0.017865
      3          6           0        1.108689   -1.163456    0.132697
      4          6           0        0.263340   -0.601346    1.312059
      5          6           0        0.327304    0.979382    1.090665
      6          6           0        1.166361    1.132556   -0.203871
      7          6           0        0.345153    0.602392   -1.401117
      8          6           0       -1.214875    0.611991   -1.301640
      9          6           0       -1.864105    1.497037   -0.225858
     10          6           0       -0.990776    1.762971    1.030069
     11          6           0        0.341862   -0.963519   -1.195719
     12          6           0       -1.210373   -0.953323   -1.129701
     13          6           0       -1.818099   -1.615931    0.106555
     14          6           0       -1.133047   -1.243223    1.446462
     15          1           0        1.523921   -2.159541    0.296748
     16          1           0        0.802857   -0.809108    2.243052
     17          1           0        0.906742    1.397557    1.922800
     18          1           0        1.629071    2.112481   -0.335890
     19          1           0        0.746478    0.960985   -2.353126
     20          1           0       -1.663261    0.871271   -2.266582
     21          1           0       -2.822883    1.048760    0.063058
     22          1           0       -2.120040    2.460906   -0.681660
     23          1           0       -1.568284    1.585488    1.944789
     24          1           0       -0.722520    2.826563    1.058823
     25          1           0        0.778244   -1.562703   -2.000479
     26          1           0       -1.646935   -1.426505   -2.016608
     27          1           0       -2.894007   -1.405728    0.157708
     28          1           0       -1.736558   -2.700609   -0.043961
     29          1           0       -1.030659   -2.152847    2.050016
     30          1           0       -1.775080   -0.577816    2.033862
 ---------------------------------------------------------------------

 SCF Done:  E(RB3LYP) =  -580.197306278     A.U. after   14 cycles

 The electronic state is 1-A.
 Alpha  occ. eigenvalues --  -19.13722 -10.26392 -10.19581 -10.19496 -10.18875
 Alpha  occ. eigenvalues --  -10.18795 -10.18761 -10.18699 -10.18684 -10.18542
 Alpha  occ. eigenvalues --  -10.18432 -10.18377 -10.18320 -10.18287  -1.03533
 Alpha  occ. eigenvalues --   -0.89272  -0.80776  -0.78675  -0.78369  -0.71327
 Alpha  occ. eigenvalues --   -0.68207  -0.67300  -0.65349  -0.57522  -0.55658
 Alpha  occ. eigenvalues --   -0.55189  -0.53157  -0.52285  -0.47850  -0.46741
 Alpha  occ. eigenvalues --   -0.45584  -0.45116  -0.44287  -0.42902  -0.42593
 Alpha  occ. eigenvalues --   -0.39650  -0.39278  -0.39160  -0.37267  -0.36566
 Alpha  occ. eigenvalues --   -0.35245  -0.35023  -0.33819  -0.33236  -0.32745
 Alpha  occ. eigenvalues --   -0.32170  -0.30222  -0.29176  -0.27830  -0.26914
 Alpha  occ. eigenvalues --   -0.22195
 Alpha virt. eigenvalues --   -0.00488   0.05385   0.07949   0.10506   0.11109
 Alpha virt. eigenvalues --    0.11504   0.12382   0.12869   0.14834   0.15462
 Alpha virt. eigenvalues --    0.16070   0.16564   0.16600   0.17836   0.18228

 Mulliken charges:
               1
     1  O   -0.444470
     2  C    0.430115
     3  C   -0.172679
     4  C   -0.119600
     5  C   -0.118576
     6  C   -0.166235
     7  C   -0.130397
     8  C   -0.100260
     9  C   -0.278844
    10  C   -0.278520
    11  C   -0.128267
    12  C   -0.094631
    13  C   -0.277513
    14  C   -0.275743
    15  H    0.134421
    16  H    0.137168
    17  H    0.135725
    18  H    0.132573
    19  H    0.133937
    20  H    0.124014
    21  H    0.137743
    22  H    0.138001
    23  H    0.139137
    24  H    0.137537
    25  H    0.133794
    26  H    0.122598
    27  H    0.135327
    28  H    0.137159
    29  H    0.137581
    30  H    0.138906
 Sum of Mulliken charges =  -0.00000

 Dipole moment (field-independent basis, Debye):
    X=             -3.2626    Y=              0.0823    Z=              0.0010  Tot=              3.2636
 Quadrupole moment (field-independent basis, Debye-Ang):
   XX=            -96.6763   YY=            -80.5845   ZZ=            -80.2457
   XY=              0.3023   XZ=              0.1411   YZ=             -0.0114

  Exact polarizability: 127.440   0.159 117.093   0.697  -0.545 109.712
 Approx polarizability: 190.138  -0.305 171.660   0.650  -1.023 163.924

                      1                      2                      3
                      A                      A                      A
 Frequencies --     70.7814               120.4326               184.1502
 Red. masses --      1.9460                 7.2795                 1.7731
 Frc consts  --      0.0057                 0.0622                 0.0354
 IR Inten    --      0.0851                 2.8403                 0.1450

                      4                      5                      6
                      A                      A                      A
 Frequencies --    248.2981               283.2112               314.1011
 Red. masses --      4.5484                 2.5725                 2.7981
 Frc consts  --      0.1652                 0.1216                 0.1626
 IR Inten    --      0.6724                 0.1898                 0.2635

                      7                      8                      9
                      A                      A                      A
 Frequencies --    397.1280               423.0910               479.6034
 Red. masses --      2.8104                 6.2489                 4.7520
 Frc consts  --      0.2611                 0.6591                 0.6440
 IR Inten    --      1.3515                 0.2059                 1.1947

                     10                     11                     12
                      A                      A                      A
 Frequencies --    484.0843               523.5165               541.5023
 Red. masses --      5.8239                 4.4167                 3.3658
 Frc consts  --      0.8041                 0.7132                 0.5815
 IR Inten    --      0.1410                 0.1699                 5.9809

                     13                     14                     15
                      A                      A                      A
 Frequencies --    608.2514               675.6812               701.4470
 Red. masses --      5.7539                 2.9487                 3.5376
 Frc consts  --      1.2542                 0.7932                 1.0255
 IR Inten    --      0.5752                 0.6103                 3.6103

                     16                     17                     18
                      A                      A                      A
 Frequencies --    717.3426               728.3543               761.3396
 Red. masses --      3.6435                 2.7958                 3.6349
 Frc consts  --      1.1046                 0.8739                 1.2414
 IR Inten    --      2.1243                 2.4477                 0.5199

                     19                     20                     21
                      A                      A                      A
 Frequencies --    769.7804               781.1721               797.0526
 Red. masses --      3.8045                 3.0726                 2.1019
 Frc consts  --      1.3283                 1.1047                 0.7867
 IR Inten    --      1.3929                 1.1708                 0.4803

                     22                     23                     24
                      A                      A                      A
 Frequencies --    836.7915               854.7543               873.8818
 Red. masses --      2.0181                 2.1657                 3.2755
 Frc consts  --      0.8326                 0.9322                 1.4738
 IR Inten    --      1.3350                 0.9007                 6.2420

                     25                     26                     27
                      A                      A                      A
 Frequencies --    879.3662               901.0930               926.6148
 Red. masses --      2.3410                 2.3246                 2.4950
 Frc consts  --      1.0666                 1.1121                 1.2622
 IR Inten    --      1.5737                 0.0252                 0.1370

                     28                     29                     30
                      A                      A                      A
 Frequencies --    955.7552               978.7057              1002.3460
 Red. masses --      2.4475                 2.3016                 2.2009
 Frc consts  --      1.3172                 1.2989                 1.3028
 IR Inten    --      0.0385                 0.3176                 1.3248

                     31                     32                     33
                      A                      A                      A
 Frequencies --   1035.3440              1047.9409              1057.9965
 Red. masses --      4.3739                 1.8975                 1.9484
 Frc consts  --      2.7624                 1.2277                 1.2850
 IR Inten    --      2.5267                 0.5934                 0.4473

                     34                     35                     36
                      A                      A                      A
 Frequencies --   1079.9419              1101.5105              1106.5411
 Red. masses --      1.9959                 1.8693                 1.8261
 Frc consts  --      1.3715                 1.3363                 1.3174
 IR Inten    --      0.8660                 0.0786                 0.0686

                     37                     38                     39
                      A                      A                      A
 Frequencies --   1130.6380              1138.8704              1147.8999
 Red. masses --      1.7247                 3.0115                 1.8234
 Frc consts  --      1.2990                 2.3013                 1.4156
 IR Inten    --      0.4313                18.5034                11.8390

                     40                     41                     42
                      A                      A                      A
 Frequencies --   1157.2315              1182.8986              1203.1201
 Red. masses --      1.6479                 1.4370                 2.0870
 Frc consts  --      1.3002                 1.1847                 1.7799
 IR Inten    --      1.0717                 6.4765                 0.5085

                     43                     44                     45
                      A                      A                      A
 Frequencies --   1204.2997              1223.4364              1249.1133
 Red. masses --      1.6465                 1.4082                 1.1450
 Frc consts  --      1.4070                 1.2419                 1.0526
 IR Inten    --      1.8961                 3.1618                 0.2505

                     46                     47                     48
                      A                      A                      A
 Frequencies --   1263.0542              1274.4970              1283.3735
 Red. masses --      1.3397                 1.2892                 1.4226
 Frc consts  --      1.2592                 1.2338                 1.3805
 IR Inten    --      0.0402                 1.3684                 0.6893

                     49                     50                     51
                      A                      A                      A
 Frequencies --   1284.4931              1298.1050              1306.0258
 Red. masses --      1.2616                 1.5871                 1.3294
 Frc consts  --      1.2264                 1.5757                 1.3360
 IR Inten    --      0.4854                 0.1855                 0.1125

                     52                     53                     54
                      A                      A                      A
 Frequencies --   1328.3382              1334.1184              1337.8355
 Red. masses --      1.3096                 1.3073                 1.2780
 Frc consts  --      1.3614                 1.3709                 1.3477
 IR Inten    --      0.2399                 0.5213                 0.7024

                     55                     56                     57
                      A                      A                      A
 Frequencies --   1353.7745              1358.5727              1363.2365
 Red. masses --      1.5583                 1.5228                 1.5540
 Frc consts  --      1.6826                 1.6560                 1.7015
 IR Inten    --      0.4620                 1.0313                 1.6587

                     58                     59                     60
                      A                      A                      A
 Frequencies --   1368.9458              1375.5837              1396.0882
 Red. masses --      1.4481                 1.3205                 1.6275
 Frc consts  --      1.5989                 1.4721                 1.8689
 IR Inten    --      1.3410                 0.1190                 0.7801

                     61                     62                     63
                      A                      A                      A
 Frequencies --   1405.5099              1414.2209              1424.3375
 Red. masses --      1.3740                 1.3690                 1.3701
 Frc consts  --      1.5992                 1.6132                 1.6377
 IR Inten    --      4.2677                 2.3654                 2.7796

                     64                     65                     66
                      A                      A                      A
 Frequencies --   1508.2877              1524.1546              1528.7432
 Red. masses --      1.0732                 1.0731                 1.0947
 Frc consts  --      1.4385                 1.4688                 1.5073
 IR Inten    --      0.0508                 1.9418                 7.6793

                     67                     68                     69
                      A                      A                      A
 Frequencies --   1550.1731              1867.7827              3029.6892
 Red. masses --      1.0839                12.2341                 1.0672
 Frc consts  --      1.5346                25.1463                 5.7714
 IR Inten    --      6.0567               318.7961                 8.3171

                     70                     71                     72
                      A                      A                      A
 Frequencies --   3033.0429              3039.0109              3048.8345
 Red. masses --      1.0734                 1.0717                 1.0743
 Frc consts  --      5.8182                 5.8313                 5.8836
 IR Inten    --      5.3303                12.8314                20.7640

                     73                     74                     75
                      A                      A                      A
 Frequencies --   3050.1169              3054.6848              3059.5132
 Red. masses --      1.0779                 1.0765                 1.0976
 Frc consts  --      5.9084                 5.9183                 6.0535
 IR Inten    --     10.9461                42.7273                15.1302

                     76                     77                     78
                      A                      A                      A
 Frequencies --   3064.2488              3066.5553              3072.4227
 Red. masses --      1.0954                 1.0827                 1.0840
 Frc consts  --      6.0598                 5.9985                 6.0289
 IR Inten    --     39.0658                95.0657                38.1028

                     79                     80                     81
                      A                      A                      A
 Frequencies --   3084.2517              3085.8418              3093.7741
 Red. masses --      1.1027                 1.0884                 1.1005
 Frc consts  --      6.1801                 6.1063                 6.2060
 IR Inten    --     53.8914                34.7363                30.7389

                     82                     83                     84
                      A                      A                      A
 Frequencies --   3098.5811              3130.6817              3132.9004
 Red. masses --      1.0881                 1.0880                 1.0899
 Frc consts  --      6.1550                 6.2829                 6.3025
 IR Inten    --     75.1244                42.7935                19.2938

 - Thermochemistry -
 -------------------
 Temperature   298.150 Kelvin.  Pressure   1.00000 Atm.
 Atom     1 has atomic number  8 and mass  15.99491

 Molecular mass:   188.12012 amu.
 Principal axes and moments of inertia in atomic units:
                           1         2         3
     Eigenvalues --  1553.463472323.443322503.48190
           X            0.99998   0.00201  -0.00578
           Y           -0.00201   1.00000   0.00127
           Z            0.00578  -0.00126   0.99998
 This molecule is an asymmetric top.
 Rotational symmetry number  1.
 Warning -- assumption of classical behavior for rotation
           may cause significant error
 Rotational temperatures (Kelvin)      0.05576     0.03728     0.03460
 Rotational constants (GHZ):           1.16175     0.77675     0.72089
 Zero-point vibrational energy     700890.9 (Joules/Mol)
                                  167.51695 (Kcal/Mol)
 Warning -- explicit consideration of  13 degrees of freedom as
           vibrations may cause significant error
 Vibrational temperatures:    101.84   173.28   264.95   357.25   407.48
          (Kelvin)            451.92   571.38   608.73   690.04   696.49
                              753.22   779.10   875.14   972.15  1009.23
                             1032.10  1047.94  1095.40  1107.54  1123.93
                             1146.78  1203.96  1229.80  1257.32  1265.21
                             1296.47  1333.19  1375.12  1408.14  1442.15
                             1489.63  1507.75  1522.22  1553.80  1584.83
                             1592.07  1626.74  1638.58  1651.57  1665.00
                             1701.93  1731.02  1732.72  1760.25  1797.20
                             1817.25  1833.72  1846.49  1848.10  1867.68
                             1879.08  1911.18  1919.50  1924.85  1947.78
                             1954.68  1961.39  1969.61  1979.16  2008.66
                             2022.22  2034.75  2049.30  2170.09  2192.92
                             2199.52  2230.35  2687.32  4359.05  4363.87
                             4372.46  4386.59  4388.44  4395.01  4401.96
                             4408.77  4412.09  4420.53  4437.55  4439.84
                             4451.25  4458.17  4504.35  4507.54

 Zero-point correction=                           0.266955 (Hartree/Particle)
 Thermal correction to Energy=                    0.276609
 Thermal correction to Enthalpy=                  0.277553
 Thermal correction to Gibbs Free Energy=         0.232045
 Sum of electronic and zero-point Energies=           -579.930351
 Sum of electronic and thermal Energies=              -579.920697
 Sum of electronic and thermal Enthalpies=            -579.919753
 Sum of electronic and thermal Free Energies=         -579.965261

                     E (Thermal)             CV                S
                      KCal/Mol        Cal/Mol-Kelvin    Cal/Mol-Kelvin
 Total                  173.575             42.544             95.780
 Electronic               0.000              0.000              0.000
 Translational            0.889              2.981             41.602
 Rotational               0.889              2.981             30.581
 Vibrational            171.797             36.582             23.597
 Vibration     1          0.598              1.968              4.132
 Vibration     2          0.609              1.932              3.093
 Vibration     3          0.631              1.861              2.286
 Vibration     4          0.662              1.766              1.743
 Vibration     5          0.682              1.705              1.514
 Vibration     6          0.702              1.647              1.341
 Vibration     7          0.764              1.476              0.973
 Vibration     8          0.785              1.420              0.882
 Vibration     9          0.836              1.295              0.711
 Vibration    10          0.840              1.285              0.699
 Vibration    11          0.878              1.198              0.602
 Vibration    12          0.897              1.158              0.562
 Vibration    13          0.967              1.014              0.436

 Normal termination of Gaussian 16 at Sat Feb 24 02:23:40 2024.
