 Gaussian 16, Revision A.03,
 Gaussian 16:  EM64M-G16RevA.03 25-Dec-2016

 ---------------------
 # freq b3lyp/6-31g(d)
 ---------------------

 ---------
 good luck
 ---------
 Symbolic Z-matrix:
 Charge =  0 Multiplicity = 1

                         Standard orientation:
 ---------------------------------------------------------------------
 Center     Atomic      Atomic             Coordinates (Angstroms)
 Number     Number       Type             X           Y           Z
 ---------------------------------------------------------------------
      1          8           0        2.053005    1.412340   -0.606249
      2          6           0        1.064826    0.910102   -0.102537
      3          6           0        0.910025   -0.616304    0.047952
      4          6           0        1.149991   -0.978128    1.535421
      5          6           0        1.957496   -1.334029   -0.815580
      6          6           0       -0.518642   -1.036331   -0.397409
      7          6           0       -1.668851   -0.213568    0.210341
      8          6           0       -3.028909   -0.697543   -0.308076
      9          6           0       -1.450827    1.279727   -0.082415
     10          6           0       -0.080804    1.769605    0.422056
     11          1           0        0.426909   -0.509913    2.210480
     12          1           0        2.153469   -0.671157    1.851113
     13          1           0        1.072987   -2.064106    1.667498
     14          1           0        1.842698   -1.074277   -1.873147
     15          1           0        1.851184   -2.420656   -0.714306
     16          1           0        2.971572   -1.053168   -0.518271
     17          1           0       -0.656222   -2.101989   -0.166410
     18          1           0       -0.578587   -0.951017   -1.493143
     19          1           0       -1.660121   -0.348927    1.302408
     20          1           0       -3.097214   -0.584788   -1.397700
     21          1           0       -3.191378   -1.755840   -0.072324
     22          1           0       -3.850261   -0.124526    0.138256
     23          1           0       -2.248849    1.880392    0.372316
     24          1           0       -1.517272    1.444959   -1.167963
     25          1           0       -0.066412    1.729700    1.521212
     26          1           0        0.117622    2.805410    0.131447
 ---------------------------------------------------------------------

 SCF Done:  E(RB3LYP) =  -427.833022119     A.U. after   13 cycles

 The electronic state is 1-A.
 Alpha  occ. eigenvalues --  -19.13206 -10.26462 -10.20216 -10.19468 -10.19064
 Alpha  occ. eigenvalues --  -10.18876 -10.18667 -10.18455 -10.17935 -10.16931
 Alpha  occ. eigenvalues --   -1.03105  -0.84237  -0.79010  -0.75250  -0.68897
 Alpha  occ. eigenvalues --   -0.68021  -0.65508  -0.59895  -0.57225  -0.51067
 Alpha  occ. eigenvalues --   -0.46806  -0.46034  -0.45221  -0.44206  -0.43451
 Alpha  occ. eigenvalues --   -0.41707  -0.40968  -0.39234  -0.38669  -0.37638
 Alpha  occ. eigenvalues --   -0.36985  -0.36574  -0.35834  -0.34380  -0.34060
 Alpha  occ. eigenvalues --   -0.31949  -0.31574  -0.30843  -0.23195
 Alpha virt. eigenvalues --   -0.01142   0.07682   0.09789   0.10802   0.11881
 Alpha virt. eigenvalues --    0.13138   0.14297   0.15034   0.15706   0.16748
 Alpha virt. eigenvalues --    0.16946   0.17355   0.18064   0.19063   0.19161

 Mulliken charges:
               1
     1  O   -0.453245
     2  C    0.452043
     3  C    0.009286
     4  C   -0.463611
     5  C   -0.439409
     6  C   -0.267434
     7  C   -0.084253
     8  C   -0.446105
     9  C   -0.266457
    10  C   -0.352055
    11  H    0.147480
    12  H    0.158669
    13  H    0.150754
    14  H    0.148017
    15  H    0.131914
    16  H    0.159535
    17  H    0.131884
    18  H    0.132944
    19  H    0.124135
    20  H    0.142671
    21  H    0.143740
    22  H    0.143112
    23  H    0.138493
    24  H    0.139160
    25  H    0.155917
    26  H    0.162816
 Sum of Mulliken charges =  -0.00000

 Dipole moment (field-independent basis, Debye):
    X=             -2.3414    Y=             -1.2131    Z=              1.2060  Tot=              2.8997
 Quadrupole moment (field-independent basis, Debye-Ang):
   XX=            -68.2925   YY=            -64.0678   ZZ=            -62.3743
   XY=             -4.7216   XZ=              2.4453   YZ=              1.5397

  Exact polarizability: 103.391  -0.190  93.270  -2.134  -0.524  82.106
 Approx polarizability: 136.721   5.279 130.008  -7.674  -4.164 126.110

                      1                      2                      3
                      A                      A                      A
 Frequencies --     69.5930               132.0101               177.7381
 Red. masses --      4.9558                 2.3237                 2.2920
 Frc consts  --      0.0141                 0.0239                 0.0427
 IR Inten    --      2.7232                 0.0630                 0.2826

                      4                      5                      6
                      A                      A                      A
 Frequencies --    213.6378               231.2609               240.2861
 Red. masses --      1.0573                 1.2994                 1.1446
 Frc consts  --      0.0284                 0.0409                 0.0389
 IR Inten    --      0.0894                 0.0218                 0.0558

                      7                      8                      9
                      A                      A                      A
 Frequencies --    260.0176               273.3025               308.7453
 Red. masses --      2.0719                 1.6994                 2.6548
 Frc consts  --      0.0825                 0.0748                 0.1491
 IR Inten    --      1.2373                 0.0325                 1.2553

                     10                     11                     12
                      A                      A                      A
 Frequencies --    343.3572               369.5869               402.3152
 Red. masses --      3.1389                 2.1344                 4.4341
 Frc consts  --      0.2180                 0.1718                 0.4228
 IR Inten    --      2.8178                 0.4917                 1.3780

                     13                     14                     15
                      A                      A                      A
 Frequencies --    441.2443               453.9006               514.7384
 Red. masses --      2.1268                 2.6726                 2.2513
 Frc consts  --      0.2440                 0.3244                 0.3514
 IR Inten    --      1.3411                 1.8482                 2.2507

                     16                     17                     18
                      A                      A                      A
 Frequencies --    562.0986               667.6943               725.1275
 Red. masses --      3.6925                 3.2465                 3.3832
 Frc consts  --      0.6874                 0.8527                 1.0481
 IR Inten    --      3.5183                 2.0697                 0.7343

                     19                     20                     21
                      A                      A                      A
 Frequencies --    808.3301               846.8708               861.5942
 Red. masses --      1.9290                 2.1754                 2.0568
 Frc consts  --      0.7426                 0.9192                 0.8996
 IR Inten    --      1.5553                 2.3704                 6.6386

                     22                     23                     24
                      A                      A                      A
 Frequencies --    919.8593               941.6727               964.1825
 Red. masses --      1.8502                 1.7252                 1.4729
 Frc consts  --      0.9224                 0.9013                 0.8068
 IR Inten    --      1.2220                 1.9837                 1.3471

                     25                     26                     27
                      A                      A                      A
 Frequencies --    968.0543               996.6042              1020.0374
 Red. masses --      1.5248                 1.7723                 1.5923
 Frc consts  --      0.8419                 1.0371                 0.9761
 IR Inten    --      3.3505                 0.2934                 9.5489

                     28                     29                     30
                      A                      A                      A
 Frequencies --   1036.4588              1060.9335              1089.8004
 Red. masses --      1.4418                 1.9190                 2.0243
 Frc consts  --      0.9126                 1.2726                 1.4165
 IR Inten    --      0.0583                 9.8926                 3.0063

                     31                     32                     33
                      A                      A                      A
 Frequencies --   1134.8331              1156.5102              1167.7736
 Red. masses --      1.8183                 1.6505                 2.1128
 Frc consts  --      1.3796                 1.3006                 1.6976
 IR Inten    --     14.7587                18.8722                 9.7851

                     34                     35                     36
                      A                      A                      A
 Frequencies --   1221.5333              1240.9385              1246.3217
 Red. masses --      2.7378                 2.0934                 1.9251
 Frc consts  --      2.4070                 1.8993                 1.7618
 IR Inten    --      2.0858                 3.1345                 0.9720

                     37                     38                     39
                      A                      A                      A
 Frequencies --   1283.6100              1321.5330              1345.1357
 Red. masses --      1.4635                 1.5429                 1.2850
 Frc consts  --      1.4207                 1.5876                 1.3699
 IR Inten    --      4.7083                 2.1372                 2.9731

                     40                     41                     42
                      A                      A                      A
 Frequencies --   1350.6042              1369.0342              1400.6241
 Red. masses --      1.4095                 1.5467                 1.4501
 Frc consts  --      1.5149                 1.7080                 1.6760
 IR Inten    --      0.9124                10.7549                 0.6090

                     43                     44                     45
                      A                      A                      A
 Frequencies --   1415.4567              1425.7900              1440.3151
 Red. masses --      1.5650                 1.2245                 1.2349
 Frc consts  --      1.8474                 1.4666                 1.5094
 IR Inten    --      0.0938                 4.2977                 2.1333

                     46                     47                     48
                      A                      A                      A
 Frequencies --   1447.5160              1498.2609              1507.5419
 Red. masses --      1.2239                 1.0850                 1.0742
 Frc consts  --      1.5109                 1.4351                 1.4384
 IR Inten    --      7.2803                 8.7593                 0.7077

                     49                     50                     51
                      A                      A                      A
 Frequencies --   1516.4153              1517.8668              1526.8542
 Red. masses --      1.0511                 1.0581                 1.0589
 Frc consts  --      1.4241                 1.4364                 1.4545
 IR Inten    --      1.0897                 2.3906                 1.9970

                     52                     53                     54
                      A                      A                      A
 Frequencies --   1529.8035              1530.8341              1531.6870
 Red. masses --      1.0622                 1.0662                 1.0542
 Frc consts  --      1.4647                 1.4722                 1.4571
 IR Inten    --      3.8317                 7.8802                 6.8087

                     55                     56                     57
                      A                      A                      A
 Frequencies --   1540.8670              1802.9743              3009.4606
 Red. masses --      1.0581                11.6172                 1.0751
 Frc consts  --      1.4802                22.2500                 5.7369
 IR Inten    --      9.5337               163.9774                 2.5683

                     58                     59                     60
                      A                      A                      A
 Frequencies --   3016.0365              3026.4119              3033.1601
 Red. masses --      1.0660                 1.0671                 1.0636
 Frc consts  --      5.7135                 5.7585                 5.7654
 IR Inten    --     23.3363                13.4880                18.7522

                     61                     62                     63
                      A                      A                      A
 Frequencies --   3039.9669              3047.9136              3054.1235
 Red. masses --      1.0380                 1.0374                 1.0569
 Frc consts  --      5.6518                 5.6781                 5.8087
 IR Inten    --     52.5994                21.4901                12.0187

                     64                     65                     66
                      A                      A                      A
 Frequencies --   3056.6111              3072.9953              3104.2323
 Red. masses --      1.0800                 1.1000                 1.1015
 Frc consts  --      5.9449                 6.1205                 6.2539
 IR Inten    --     51.4965                33.0677                43.5079

                     67                     68                     69
                      A                      A                      A
 Frequencies --   3110.0128              3112.9173              3116.0966
 Red. masses --      1.1025                 1.1016                 1.0952
 Frc consts  --      6.2829                 6.2896                 6.2656
 IR Inten    --     30.5896                20.2008                15.6560

                     70                     71                     72
                      A                      A                      A
 Frequencies --   3119.9388              3127.3020              3140.4382
 Red. masses --      1.1013                 1.1012                 1.1011
 Frc consts  --      6.3159                 6.3455                 6.3984
 IR Inten    --     36.8530                31.5545                22.7684

 - Thermochemistry -
 -------------------
 Temperature   298.150 Kelvin.  Pressure   1.00000 Atm.
 Atom     1 has atomic number  8 and mass  15.99491

 Molecular mass:   140.12012 amu.
 Principal axes and moments of inertia in atomic units:
                           1         2         3
     Eigenvalues --   954.293011664.151812094.87365
           X            0.99890  -0.04534   0.01187
           Y            0.04509   0.99876   0.02088
           Z           -0.01280  -0.02032   0.99971
 This molecule is an asymmetric top.
 Rotational symmetry number  1.
 Warning -- assumption of classical behavior for rotation
           may cause significant error
 Rotational temperatures (Kelvin)      0.09076     0.05205     0.04135
 Rotational constants (GHZ):           1.89118     1.08448     0.86150
 Zero-point vibrational energy     619422.2 (Joules/Mol)
                                  148.04546 (Kcal/Mol)
 Warning -- explicit consideration of  16 degrees of freedom as
           vibrations may cause significant error
 Vibrational temperatures:    100.13   189.93   255.73   307.38   332.73
          (Kelvin)            345.72   374.11   393.22   444.22   494.01
                              531.75   578.84   634.85   653.06   740.59
                              808.73   960.66  1043.30  1163.01  1218.46
                             1239.64  1323.47  1354.86  1387.24  1392.81
                             1433.89  1467.61  1491.23  1526.45  1567.98
                             1632.77  1663.96  1680.17  1757.51  1785.43
                             1793.18  1846.83  1901.39  1935.35  1943.22
                             1969.73  2015.19  2036.53  2051.39  2072.29
                             2082.65  2155.66  2169.02  2181.78  2183.87
                             2196.80  2201.05  2202.53  2203.76  2216.96
                             2594.08  4329.94  4339.40  4354.33  4364.04
                             4373.83  4385.27  4394.20  4397.78  4421.35
                             4466.30  4474.61  4478.79  4483.37  4488.90
                             4499.49  4518.39

 Zero-point correction=                           0.235925 (Hartree/Particle)
 Thermal correction to Energy=                    0.246658
 Thermal correction to Enthalpy=                  0.247602
 Thermal correction to Gibbs Free Energy=         0.200757
 Sum of electronic and zero-point Energies=           -427.597097
 Sum of electronic and thermal Energies=              -427.586364
 Sum of electronic and thermal Enthalpies=            -427.585420
 Sum of electronic and thermal Free Energies=         -427.632265

                     E (Thermal)             CV                S
                      KCal/Mol        Cal/Mol-Kelvin    Cal/Mol-Kelvin
 Total                  154.780             41.825             98.593
 Electronic               0.000              0.000              0.000
 Translational            0.889              2.981             40.724
 Rotational               0.889              2.981             29.588
 Vibrational            153.003             35.863             28.282
 Vibration     1          0.598              1.969              4.165
 Vibration     2          0.612              1.921              2.917
 Vibration     3          0.628              1.870              2.352
 Vibration     4          0.644              1.820              2.012
 Vibration     5          0.653              1.793              1.869
 Vibration     6          0.657              1.779              1.801
 Vibration     7          0.668              1.746              1.662
 Vibration     8          0.676              1.723              1.575
 Vibration     9          0.698              1.657              1.369
 Vibration    10          0.722              1.589              1.197
 Vibration    11          0.742              1.535              1.082
 Vibration    12          0.768              1.465              0.954
 Vibration    13          0.801              1.380              0.823
 Vibration    14          0.812              1.352              0.784
 Vibration    15          0.870              1.217              0.622
 Vibration    16          0.918              1.113              0.520

 Normal termination of Gaussian 16 at Wed Feb 21 19:52:17 2024.
