 Gaussian 16, Revision A.03,
 Gaussian 16:  EM64M-G16RevA.03 25-Dec-2016

 ---------------------
 # freq b3lyp/6-31g(d)
 ---------------------

 ---------
 good luck
 ---------
 Symbolic Z-matrix:
 Charge =  0 Multiplicity = 1

                         Standard orientation:
 ---------------------------------------------------------------------
 Center     Atomic      Atomic             Coordinates (Angstroms)
 Number     Number       Type             X           Y           Z
 ---------------------------------------------------------------------
      1          8           0       -3.469542    1.674835   -0.981781
      2          6           0       -3.345711    0.652605   -0.356707
      3          6           0       -4.176309   -0.635377   -0.237221
      4          6           0       -2.921649   -1.309619    0.396813
      5          6           0       -2.212432    0.080300    0.516874
      6          6           0       -0.779805    0.265234    0.019951
      7          6           0        0.272742   -0.381714    0.943850
      8          6           0        1.688104   -0.201994    0.436646
      9          6           0        2.281549   -1.160945   -0.394994
     10          6           0        3.571843   -0.978998   -0.894689
     11          6           0        4.293448    0.170361   -0.568218
     12          6           0        3.715445    1.133322    0.261179
     13          6           0        2.424998    0.946259    0.757616
     14          1           0       -5.015808   -0.518591    0.458681
     15          1           0       -4.561690   -1.042305   -1.177668
     16          1           0       -3.087956   -1.848652    1.332316
     17          1           0       -2.407748   -1.973458   -0.305821
     18          1           0       -2.310199    0.479543    1.537901
     19          1           0       -0.684722   -0.156237   -0.989972
     20          1           0       -0.575864    1.339064   -0.076886
     21          1           0        0.051310   -1.451934    1.047934
     22          1           0        0.179549    0.054922    1.947415
     23          1           0        1.727403   -2.062222   -0.649883
     24          1           0        4.014829   -1.737260   -1.535339
     25          1           0        5.299537    0.312810   -0.953507
     26          1           0        4.271001    2.029475    0.525455
     27          1           0        1.983353    1.699558    1.407019
 ---------------------------------------------------------------------

 SCF Done:  E(RB3LYP) =  -540.908524521     A.U. after   14 cycles

 The electronic state is 1-A.
 Alpha  occ. eigenvalues --  -19.14439 -10.27288 -10.19857 -10.19700 -10.19531
 Alpha  occ. eigenvalues --  -10.19419 -10.19186 -10.19134 -10.18797 -10.18779
 Alpha  occ. eigenvalues --  -10.18638 -10.18621 -10.18592  -1.04142  -0.85531
 Alpha  occ. eigenvalues --   -0.84797  -0.78825  -0.74064  -0.73546  -0.67418
 Alpha  occ. eigenvalues --   -0.63454  -0.61172  -0.60223  -0.57520  -0.52815
 Alpha  occ. eigenvalues --   -0.50734  -0.47840  -0.46637  -0.46002  -0.45335
 Alpha  occ. eigenvalues --   -0.43689  -0.42724  -0.41644  -0.40985  -0.39214
 Alpha  occ. eigenvalues --   -0.38843  -0.37766  -0.35813  -0.35504  -0.34335
 Alpha  occ. eigenvalues --   -0.34057  -0.33565  -0.32762  -0.32070  -0.24705
 Alpha  occ. eigenvalues --   -0.24469  -0.23423
 Alpha virt. eigenvalues --   -0.02103   0.00174   0.00373   0.08500   0.09593
 Alpha virt. eigenvalues --    0.10946   0.11204   0.12841   0.13410   0.14367
 Alpha virt. eigenvalues --    0.15287   0.15552   0.16307   0.16911   0.17703

 Mulliken charges:
               1
     1  O   -0.427271
     2  C    0.422591
     3  C   -0.360177
     4  C   -0.303549
     5  C   -0.163980
     6  C   -0.252691
     7  C   -0.355591
     8  C    0.173976
     9  C   -0.180446
    10  C   -0.127616
    11  C   -0.130942
    12  C   -0.127684
    13  C   -0.178978
    14  H    0.173122
    15  H    0.171597
    16  H    0.147537
    17  H    0.150596
    18  H    0.155176
    19  H    0.140608
    20  H    0.160261
    21  H    0.144255
    22  H    0.141019
    23  H    0.119880
    24  H    0.128261
    25  H    0.128256
    26  H    0.129109
    27  H    0.122682
 Sum of Mulliken charges =  -0.00000

 Dipole moment (field-independent basis, Debye):
    X=              0.3348    Y=             -2.2229    Z=              1.4479  Tot=              2.6739
 Quadrupole moment (field-independent basis, Debye-Ang):
   XX=            -75.4978   YY=            -78.7115   ZZ=            -77.5102
   XY=              9.6583   XZ=             -7.2046   YZ=              5.9610

  Exact polarizability: 158.135  10.311 113.827 -12.791  12.197  89.406
 Approx polarizability: 200.696  15.324 191.072 -23.990  23.790 144.845

                      1                      2                      3
                      A                      A                      A
 Frequencies --     22.0121                41.2274                57.9635
 Red. masses --      4.0414                 3.6044                 5.0724
 Frc consts  --      0.0012                 0.0036                 0.0100
 IR Inten    --      0.8115                 0.9228                 1.0236

                      4                      5                      6
                      A                      A                      A
 Frequencies --     82.1724                92.1816               147.6473
 Red. masses --      2.6244                 2.2989                 4.5486
 Frc consts  --      0.0104                 0.0115                 0.0584
 IR Inten    --      0.5142                 1.7379                 2.5141

                      7                      8                      9
                      A                      A                      A
 Frequencies --    216.1129               295.0430               330.1540
 Red. masses --      4.8805                 3.8017                 2.2481
 Frc consts  --      0.1343                 0.1950                 0.1444
 IR Inten    --      0.1807                 2.1898                 0.5482

                     10                     11                     12
                      A                      A                      A
 Frequencies --    365.4042               417.0861               454.0333
 Red. masses --      2.6727                 2.9916                 2.4524
 Frc consts  --      0.2103                 0.3066                 0.2979
 IR Inten    --      0.3703                 0.0020                 1.7658

                     13                     14                     15
                      A                      A                      A
 Frequencies --    501.4395               557.0855               588.6053
 Red. masses --      3.6365                 2.7422                 4.5668
 Frc consts  --      0.5387                 0.5014                 0.9322
 IR Inten    --      6.8159                 1.6659                 3.3655

                     16                     17                     18
                      A                      A                      A
 Frequencies --    636.7940               669.0712               715.2699
 Red. masses --      6.3352                 3.7303                 1.9175
 Frc consts  --      1.5136                 0.9839                 0.5780
 IR Inten    --      0.0088                 1.0886                20.4670

                     19                     20                     21
                      A                      A                      A
 Frequencies --    742.4383               770.8271               771.7731
 Red. masses --      1.4158                 1.2715                 1.6699
 Frc consts  --      0.4598                 0.4451                 0.5860
 IR Inten    --     12.0315                 3.2708                14.7038

                     22                     23                     24
                      A                      A                      A
 Frequencies --    785.6718               848.5456               859.9699
 Red. masses --      3.1808                 2.8567                 1.2501
 Frc consts  --      1.1568                 1.2119                 0.5447
 IR Inten    --      1.0041                 1.1026                 0.0065

                     25                     26                     27
                      A                      A                      A
 Frequencies --    894.1287               921.8186               939.3329
 Red. masses --      2.3230                 1.5046                 2.3629
 Frc consts  --      1.0942                 0.7533                 1.2284
 IR Inten    --      0.8388                 0.9874                 3.7225

                     28                     29                     30
                      A                      A                      A
 Frequencies --    963.4565               965.2960               993.0905
 Red. masses --      1.5724                 1.5302                 1.2713
 Frc consts  --      0.8600                 0.8401                 0.7387
 IR Inten    --      0.1498                 0.1696                 0.3341

                     31                     32                     33
                      A                      A                      A
 Frequencies --    999.6517              1018.4271              1051.5288
 Red. masses --      1.5489                 6.2667                 3.4963
 Frc consts  --      0.9120                 3.8296                 2.2777
 IR Inten    --      5.2319                 0.2649                13.6250

                     34                     35                     36
                      A                      A                      A
 Frequencies --   1059.2567              1074.5273              1097.1627
 Red. masses --      2.2331                 1.7038                 3.0585
 Frc consts  --      1.4763                 1.1590                 2.1692
 IR Inten    --      1.7444                 6.8831                72.3240

                     37                     38                     39
                      A                      A                      A
 Frequencies --   1116.9963              1133.7036              1192.2762
 Red. masses --      2.0437                 1.6065                 1.1052
 Frc consts  --      1.5023                 1.2165                 0.9256
 IR Inten    --     13.0161                 3.3102                 0.1913

                     40                     41                     42
                      A                      A                      A
 Frequencies --   1200.8900              1213.7868              1216.7054
 Red. masses --      1.4685                 1.1473                 1.4058
 Frc consts  --      1.2478                 0.9959                 1.2262
 IR Inten    --      5.7991                 0.0939                 0.8875

                     43                     44                     45
                      A                      A                      A
 Frequencies --   1233.0106              1241.2840              1246.7150
 Red. masses --      2.5825                 1.2065                 1.3558
 Frc consts  --      2.3132                 1.0953                 1.2416
 IR Inten    --      1.4864                 3.2525                 4.6390

                     46                     47                     48
                      A                      A                      A
 Frequencies --   1280.3054              1302.8287              1322.0389
 Red. masses --      1.5247                 1.4579                 1.3565
 Frc consts  --      1.4725                 1.4580                 1.3969
 IR Inten    --     10.9679                 0.1552                 3.9239

                     49                     50                     51
                      A                      A                      A
 Frequencies --   1360.6241              1361.9504              1372.0525
 Red. masses --      1.4335                 4.1251                 1.2446
 Frc consts  --      1.5636                 4.5083                 1.3805
 IR Inten    --      6.0067                 0.1098                 0.3615

                     52                     53                     54
                      A                      A                      A
 Frequencies --   1399.1209              1471.5113              1501.9405
 Red. masses --      1.5267                 1.0961                 2.1867
 Frc consts  --      1.7609                 1.3983                 2.9064
 IR Inten    --      5.3215                 6.0730                 4.7329

                     55                     56                     57
                      A                      A                      A
 Frequencies --   1509.5309              1521.8946              1529.7515
 Red. masses --      1.0864                 1.1033                 1.0992
 Frc consts  --      1.4586                 1.5057                 1.5155
 IR Inten    --      0.3204                 1.2601                 3.6721

                     58                     59                     60
                      A                      A                      A
 Frequencies --   1546.9615              1644.2380              1665.7092
 Red. masses --      2.2242                 5.4541                 5.5930
 Frc consts  --      3.1361                 8.6877                 9.1431
 IR Inten    --     11.1603                 1.0775                 6.1049

                     61                     62                     63
                      A                      A                      A
 Frequencies --   1883.0065              3023.9371              3032.2445
 Red. masses --     12.7459                 1.0817                 1.0598
 Frc consts  --     26.6271                 5.8280                 5.7413
 IR Inten    --    248.6879                 7.4343                 9.4371

                     64                     65                     66
                      A                      A                      A
 Frequencies --   3044.4325              3066.0621              3068.6556
 Red. masses --      1.0623                 1.1014                 1.0607
 Frc consts  --      5.8010                 6.1001                 5.8849
 IR Inten    --     43.7366                 2.1979                14.9851

                     67                     68                     69
                      A                      A                      A
 Frequencies --   3081.9889              3091.1899              3120.9440
 Red. masses --      1.0637                 1.1028                 1.1040
 Frc consts  --      5.9530                 6.2088                 6.3354
 IR Inten    --     14.0277                40.0002                 5.9496

                     70                     71                     72
                      A                      A                      A
 Frequencies --   3140.9675              3170.3340              3171.7226
 Red. masses --      1.1068                 1.0864                 1.0875
 Frc consts  --      6.4337                 6.4333                 6.4456
 IR Inten    --     28.8537                11.6526                 7.6145

                     73                     74                     75
                      A                      A                      A
 Frequencies --   3185.6973              3194.8683              3207.5065
 Red. masses --      1.0893                 1.0936                 1.0978
 Frc consts  --      6.5132                 6.5770                 6.6543
 IR Inten    --      6.0814                41.6231                23.8234

 - Thermochemistry -
 -------------------
 Temperature   298.150 Kelvin.  Pressure   1.00000 Atm.
 Atom     1 has atomic number  8 and mass  15.99491

 Molecular mass:   174.10447 amu.
 Principal axes and moments of inertia in atomic units:
                           1         2         3
     Eigenvalues --   843.510375810.228556110.28379
           X            0.99988   0.01409  -0.00591
           Y           -0.01368   0.99782   0.06463
           Z            0.00681  -0.06454   0.99789
 This molecule is an asymmetric top.
 Rotational symmetry number  1.
 Warning -- assumption of classical behavior for rotation
           may cause significant error
 Rotational temperatures (Kelvin)      0.10268     0.01491     0.01418
 Rotational constants (GHZ):           2.13956     0.31061     0.29536
 Zero-point vibrational energy     604207.4 (Joules/Mol)
                                  144.40904 (Kcal/Mol)
 Warning -- explicit consideration of  15 degrees of freedom as
           vibrations may cause significant error
 Vibrational temperatures:     31.67    59.32    83.40   118.23   132.63
          (Kelvin)            212.43   310.94   424.50   475.02   525.74
                              600.09   653.25   721.46   801.52   846.87
                              916.20   962.64  1029.11  1068.20  1109.05
                             1110.41  1130.41  1220.87  1237.30  1286.45
                             1326.29  1351.49  1386.20  1388.85  1428.84
                             1438.28  1465.29  1512.92  1524.03  1546.01
                             1578.57  1607.11  1631.15  1715.42  1727.81
                             1746.37  1750.57  1774.03  1785.93  1793.74
                             1842.07  1874.48  1902.12  1957.63  1959.54
                             1974.08  2013.02  2117.18  2160.96  2171.88
                             2189.67  2200.97  2225.73  2365.69  2396.58
                             2709.23  4350.77  4362.72  4380.26  4411.38
                             4415.11  4434.29  4447.53  4490.34  4519.15
                             4561.40  4563.40  4583.51  4596.70  4614.89

 Zero-point correction=                           0.230130 (Hartree/Particle)
 Thermal correction to Energy=                    0.242081
 Thermal correction to Enthalpy=                  0.243025
 Thermal correction to Gibbs Free Energy=         0.189484
 Sum of electronic and zero-point Energies=           -540.678394
 Sum of electronic and thermal Energies=              -540.666443
 Sum of electronic and thermal Enthalpies=            -540.665499
 Sum of electronic and thermal Free Energies=         -540.719041

                     E (Thermal)             CV                S
                      KCal/Mol        Cal/Mol-Kelvin    Cal/Mol-Kelvin
 Total                  151.908             45.107            112.687
 Electronic               0.000              0.000              0.000
 Translational            0.889              2.981             41.371
 Rotational               0.889              2.981             31.771
 Vibrational            150.131             39.145             39.545
 Vibration     1          0.593              1.985              6.444
 Vibration     2          0.594              1.981              5.199
 Vibration     3          0.596              1.974              4.525
 Vibration     4          0.600              1.961              3.838
 Vibration     5          0.602              1.955              3.613
 Vibration     6          0.617              1.905              2.702
 Vibration     7          0.645              1.816              1.991
 Vibration     8          0.689              1.683              1.445
 Vibration     9          0.713              1.615              1.259
 Vibration    10          0.739              1.543              1.099
 Vibration    11          0.780              1.433              0.902
 Vibration    12          0.812              1.352              0.784
 Vibration    13          0.857              1.247              0.655
 Vibration    14          0.913              1.124              0.530
 Vibration    15          0.946              1.056              0.470

 Normal termination of Gaussian 16 at Sat Feb 24 04:14:55 2024.
