 Gaussian 16, Revision A.03,
 Gaussian 16:  EM64M-G16RevA.03 25-Dec-2016

 ---------------------
 # freq b3lyp/6-31g(d)
 ---------------------

 ---------
 good luck
 ---------
 Symbolic Z-matrix:
 Charge =  0 Multiplicity = 1

                         Standard orientation:
 ---------------------------------------------------------------------
 Center     Atomic      Atomic             Coordinates (Angstroms)
 Number     Number       Type             X           Y           Z
 ---------------------------------------------------------------------
      1          8           0        2.153380    1.438678    1.167177
      2          6           0        2.369663    0.735948    0.209327
      3          6           0        3.567054    0.575113   -0.739846
      4          6           0        2.900025   -0.733448   -1.261724
      5          6           0        1.592663   -0.407128   -0.467530
      6          6           0        0.960249   -1.485396    0.415915
      7          6           0       -0.163061   -0.966080    1.343362
      8          6           0       -1.343876   -0.365051    0.608394
      9          6           0       -1.456308    1.023081    0.444842
     10          6           0       -2.534470    1.577120   -0.248344
     11          6           0       -3.520382    0.750831   -0.789869
     12          6           0       -3.420873   -0.633327   -0.633044
     13          6           0       -2.342053   -1.183123    0.060028
     14          1           0        3.614329    1.381652   -1.481295
     15          1           0        4.546304    0.494943   -0.256534
     16          1           0        3.397924   -1.634176   -0.889468
     17          1           0        2.790812   -0.815081   -2.345671
     18          1           0        0.827763    0.027378   -1.126010
     19          1           0        0.567576   -2.281758   -0.231211
     20          1           0        1.740886   -1.944308    1.038237
     21          1           0        0.262807   -0.221176    2.022914
     22          1           0       -0.505501   -1.806385    1.961090
     23          1           0       -0.689113    1.668152    0.866775
     24          1           0       -2.605757    2.656090   -0.360453
     25          1           0       -4.362390    1.181242   -1.325591
     26          1           0       -4.187339   -1.284888   -1.045200
     27          1           0       -2.277129   -2.262352    0.185944
 ---------------------------------------------------------------------

 SCF Done:  E(RB3LYP) =  -540.909861327     A.U. after   14 cycles

 The electronic state is 1-A.
 Alpha  occ. eigenvalues --  -19.14716 -10.27442 -10.19599 -10.19535 -10.19515
 Alpha  occ. eigenvalues --  -10.19286 -10.18947 -10.18514 -10.18403 -10.18364
 Alpha  occ. eigenvalues --  -10.18335 -10.18288 -10.17971  -1.04282  -0.85307
 Alpha  occ. eigenvalues --   -0.84513  -0.78458  -0.73667  -0.73120  -0.67297
 Alpha  occ. eigenvalues --   -0.63009  -0.61615  -0.59744  -0.57048  -0.52558
 Alpha  occ. eigenvalues --   -0.50195  -0.47966  -0.46388  -0.45929  -0.44615
 Alpha  occ. eigenvalues --   -0.43607  -0.42146  -0.41241  -0.40399  -0.40171
 Alpha  occ. eigenvalues --   -0.38760  -0.37079  -0.35967  -0.35282  -0.34390
 Alpha  occ. eigenvalues --   -0.33692  -0.33029  -0.32213  -0.31978  -0.24428
 Alpha  occ. eigenvalues --   -0.24007  -0.23480
 Alpha virt. eigenvalues --   -0.02209   0.00392   0.00564   0.09397   0.09799
 Alpha virt. eigenvalues --    0.11130   0.12377   0.12924   0.13804   0.14575
 Alpha virt. eigenvalues --    0.15759   0.16676   0.16937   0.17284   0.17778

 Mulliken charges:
               1
     1  O   -0.437723
     2  C    0.430130
     3  C   -0.358939
     4  C   -0.305063
     5  C   -0.165600
     6  C   -0.260337
     7  C   -0.355412
     8  C    0.161908
     9  C   -0.197222
    10  C   -0.129139
    11  C   -0.131942
    12  C   -0.128209
    13  C   -0.183023
    14  H    0.174765
    15  H    0.171721
    16  H    0.150500
    17  H    0.148511
    18  H    0.174053
    19  H    0.142635
    20  H    0.133954
    21  H    0.173407
    22  H    0.141052
    23  H    0.149637
    24  H    0.128524
    25  H    0.126126
    26  H    0.126181
    27  H    0.119506
 Sum of Mulliken charges =  -0.00000

 Dipole moment (field-independent basis, Debye):
    X=              0.6423    Y=             -1.6076    Z=             -1.9732  Tot=              2.6249
 Quadrupole moment (field-independent basis, Debye-Ang):
   XX=            -72.2318   YY=            -75.2918   ZZ=            -78.9883
   XY=             -2.8738   XZ=             -1.7160   YZ=             -4.1552

  Exact polarizability: 142.052  -1.001 122.309  16.264  -1.585  90.432
 Approx polarizability: 187.633   0.484 203.872  34.993   2.968 145.381

                      1                      2                      3
                      A                      A                      A
 Frequencies --     38.1343                43.0451                52.0519
 Red. masses --      4.0366                 5.1872                 3.5995
 Frc consts  --      0.0035                 0.0057                 0.0057
 IR Inten    --      0.1428                 3.2861                 1.7311

                      4                      5                      6
                      A                      A                      A
 Frequencies --     81.5708               129.3708               177.3092
 Red. masses --      2.6795                 4.8621                 3.0508
 Frc consts  --      0.0105                 0.0479                 0.0565
 IR Inten    --      0.3383                 2.7814                 0.7570

                      7                      8                      9
                      A                      A                      A
 Frequencies --    246.2069               273.7767               358.7149
 Red. masses --      3.0545                 3.4210                 2.0746
 Frc consts  --      0.1091                 0.1511                 0.1573
 IR Inten    --      2.3349                 0.6438                 0.4661

                     10                     11                     12
                      A                      A                      A
 Frequencies --    405.3514               419.2691               436.8685
 Red. masses --      3.4449                 3.0201                 2.9195
 Frc consts  --      0.3335                 0.3128                 0.3283
 IR Inten    --      0.8564                 0.0455                 2.5597

                     13                     14                     15
                      A                      A                      A
 Frequencies --    503.7831               537.1391               586.8100
 Red. masses --      3.7673                 2.4216                 3.0093
 Frc consts  --      0.5633                 0.4117                 0.6105
 IR Inten    --      3.4417                 0.3681                 7.4765

                     16                     17                     18
                      A                      A                      A
 Frequencies --    636.3811               683.0329               716.4437
 Red. masses --      6.2930                 2.9016                 2.6253
 Frc consts  --      1.5016                 0.7976                 0.7939
 IR Inten    --      0.2133                 2.8153                11.3534

                     19                     20                     21
                      A                      A                      A
 Frequencies --    721.3371               754.0843               769.5419
 Red. masses --      2.0365                 1.4538                 2.3671
 Frc consts  --      0.6243                 0.4871                 0.8259
 IR Inten    --     18.1034                 6.1692                18.1092

                     22                     23                     24
                      A                      A                      A
 Frequencies --    781.9634               866.9984               875.2680
 Red. masses --      2.0746                 1.2658                 1.6992
 Frc consts  --      0.7474                 0.5606                 0.7669
 IR Inten    --      3.8855                 0.1724                 3.1479

                     25                     26                     27
                      A                      A                      A
 Frequencies --    904.6399               934.4278               936.7781
 Red. masses --      1.9003                 1.5008                 3.0339
 Frc consts  --      0.9163                 0.7721                 1.5687
 IR Inten    --      2.2163                 4.7491                 5.3199

                     28                     29                     30
                      A                      A                      A
 Frequencies --    971.5172               973.4324               995.7127
 Red. masses --      1.7010                 1.3512                 1.5143
 Frc consts  --      0.9459                 0.7544                 0.8846
 IR Inten    --      0.8938                 1.7457                 1.4766

                     31                     32                     33
                      A                      A                      A
 Frequencies --    999.8611              1018.0716              1042.3889
 Red. masses --      1.4052                 6.2767                 3.0048
 Frc consts  --      0.8277                 3.8330                 1.9237
 IR Inten    --      0.6650                 0.1075                42.4291

                     34                     35                     36
                      A                      A                      A
 Frequencies --   1059.9717              1072.4444              1098.7710
 Red. masses --      2.2096                 1.8447                 2.6200
 Frc consts  --      1.4627                 1.2500                 1.8637
 IR Inten    --      1.4182                 1.4497                44.5159

                     37                     38                     39
                      A                      A                      A
 Frequencies --   1120.6805              1138.5952              1186.3682
 Red. masses --      1.6510                 2.2096                 1.3244
 Frc consts  --      1.2217                 1.6877                 1.0983
 IR Inten    --     11.2380                13.9372                 2.3348

                     40                     41                     42
                      A                      A                      A
 Frequencies --   1192.1820              1215.0784              1215.9493
 Red. masses --      1.0987                 1.1861                 1.3627
 Frc consts  --      0.9201                 1.0318                 1.1871
 IR Inten    --      0.0129                 0.4243                 0.6365

                     43                     44                     45
                      A                      A                      A
 Frequencies --   1231.6703              1235.4830              1257.6587
 Red. masses --      2.1721                 1.2827                 1.4387
 Frc consts  --      1.9414                 1.1536                 1.3407
 IR Inten    --      0.2826                 2.9892                 1.9552

                     46                     47                     48
                      A                      A                      A
 Frequencies --   1273.2383              1283.8490              1350.8879
 Red. masses --      1.3640                 1.4554                 1.5254
 Frc consts  --      1.3028                 1.4133                 1.6401
 IR Inten    --      0.8205                 8.8106                 7.1463

                     49                     50                     51
                      A                      A                      A
 Frequencies --   1354.9285              1368.5584              1388.9810
 Red. masses --      3.0352                 1.5754                 1.3334
 Frc consts  --      3.2830                 1.7385                 1.5157
 IR Inten    --      0.1768                 0.9639                 4.5491

                     52                     53                     54
                      A                      A                      A
 Frequencies --   1397.7521              1469.7439              1501.9582
 Red. masses --      1.4204                 1.0955                 2.1210
 Frc consts  --      1.6350                 1.3943                 2.8191
 IR Inten    --     21.1603                 5.7515                 5.4984

                     55                     56                     57
                      A                      A                      A
 Frequencies --   1515.1413              1523.1492              1524.1928
 Red. masses --      1.0947                 1.1013                 1.1200
 Frc consts  --      1.4807                 1.5054                 1.5330
 IR Inten    --      3.1409                 1.9436                 6.4185

                     58                     59                     60
                      A                      A                      A
 Frequencies --   1547.1054              1642.9398              1665.0115
 Red. masses --      2.1780                 5.4075                 5.5013
 Frc consts  --      3.0715                 8.5998                 8.9856
 IR Inten    --     11.8966                 1.1897                 4.8088

                     61                     62                     63
                      A                      A                      A
 Frequencies --   1867.9328              3027.7944              3045.9533
 Red. masses --     12.4929                 1.0599                 1.0810
 Frc consts  --     25.6824                 5.7251                 5.9094
 IR Inten    --    210.1665                23.7861                12.0065

                     64                     65                     66
                      A                      A                      A
 Frequencies --   3049.7213              3067.1623              3069.2067
 Red. masses --      1.0687                 1.0974                 1.0654
 Frc consts  --      5.8561                 6.0825                 5.9129
 IR Inten    --     25.7042                37.9194                11.5406

                     67                     68                     69
                      A                      A                      A
 Frequencies --   3084.7642              3111.5956              3119.2979
 Red. masses --      1.0619                 1.0977                 1.1044
 Frc consts  --      5.9534                 6.2618                 6.3312
 IR Inten    --     27.3889                11.9231                 6.4471

                     70                     71                     72
                      A                      A                      A
 Frequencies --   3141.4711              3168.1043              3178.6923
 Red. masses --      1.1073                 1.0867                 1.0861
 Frc consts  --      6.4385                 6.4262                 6.4655
 IR Inten    --     26.3337                 9.9986                 0.0681

                     73                     74                     75
                      A                      A                      A
 Frequencies --   3187.8581              3195.7857              3206.4106
 Red. masses --      1.0904                 1.0939                 1.0979
 Frc consts  --      6.5287                 6.5825                 6.6504
 IR Inten    --     15.0388                32.5899                23.3188

 - Thermochemistry -
 -------------------
 Temperature   298.150 Kelvin.  Pressure   1.00000 Atm.
 Atom     1 has atomic number  8 and mass  15.99491

 Molecular mass:   174.10447 amu.
 Principal axes and moments of inertia in atomic units:
                           1         2         3
     Eigenvalues --  1124.669674071.839664362.62245
           X            0.99994  -0.00895  -0.00589
           Y            0.00862   0.99856  -0.05294
           Z            0.00635   0.05289   0.99858
 This molecule is an asymmetric top.
 Rotational symmetry number  1.
 Warning -- assumption of classical behavior for rotation
           may cause significant error
 Rotational temperatures (Kelvin)      0.07701     0.02127     0.01985
 Rotational constants (GHZ):           1.60469     0.44323     0.41368
 Zero-point vibrational energy     605461.9 (Joules/Mol)
                                  144.70886 (Kcal/Mol)
 Warning -- explicit consideration of  15 degrees of freedom as
           vibrations may cause significant error
 Vibrational temperatures:     54.87    61.93    74.89   117.36   186.14
          (Kelvin)            255.11   354.24   393.90   516.11   583.21
                              603.23   628.56   724.83   772.82   844.29
                              915.61   982.73  1030.80  1037.84  1084.96
                             1107.20  1125.07  1247.42  1259.32  1301.58
                             1344.43  1347.81  1397.80  1400.55  1432.61
                             1438.58  1464.78  1499.77  1525.06  1543.01
                             1580.89  1612.41  1638.18  1706.92  1715.28
                             1748.23  1749.48  1772.10  1777.58  1809.49
                             1831.91  1847.17  1943.63  1949.44  1969.05
                             1998.43  2011.05  2114.63  2160.98  2179.95
                             2191.47  2192.97  2225.94  2363.82  2395.58
                             2687.54  4356.32  4382.45  4387.87  4412.96
                             4415.90  4438.29  4476.89  4487.97  4519.88
                             4558.20  4573.43  4586.62  4598.02  4613.31

 Zero-point correction=                           0.230608 (Hartree/Particle)
 Thermal correction to Energy=                    0.242344
 Thermal correction to Enthalpy=                  0.243288
 Thermal correction to Gibbs Free Energy=         0.191019
 Sum of electronic and zero-point Energies=           -540.679253
 Sum of electronic and thermal Energies=              -540.667517
 Sum of electronic and thermal Enthalpies=            -540.666573
 Sum of electronic and thermal Free Energies=         -540.718842

                     E (Thermal)             CV                S
                      KCal/Mol        Cal/Mol-Kelvin    Cal/Mol-Kelvin
 Total                  152.073             44.919            110.010
 Electronic               0.000              0.000              0.000
 Translational            0.889              2.981             41.371
 Rotational               0.889              2.981             31.369
 Vibrational            150.296             38.957             37.270
 Vibration     1          0.594              1.982              5.354
 Vibration     2          0.595              1.980              5.114
 Vibration     3          0.596              1.977              4.738
 Vibration     4          0.600              1.962              3.853
 Vibration     5          0.612              1.924              2.955
 Vibration     6          0.628              1.870              2.357
 Vibration     7          0.661              1.769              1.758
 Vibration     8          0.676              1.722              1.572
 Vibration     9          0.734              1.557              1.128
 Vibration    10          0.770              1.459              0.943
 Vibration    11          0.782              1.428              0.894
 Vibration    12          0.797              1.390              0.837
 Vibration    13          0.859              1.242              0.649
 Vibration    14          0.892              1.168              0.571
 Vibration    15          0.944              1.060              0.473

 Normal termination of Gaussian 16 at Sat Feb 24 04:10:05 2024.
