 Gaussian 16, Revision A.03,
 Gaussian 16:  EM64M-G16RevA.03 25-Dec-2016

 ---------------------
 # freq b3lyp/6-31g(d)
 ---------------------

 ---------
 good luck
 ---------
 Symbolic Z-matrix:
 Charge =  0 Multiplicity = 1

                         Standard orientation:
 ---------------------------------------------------------------------
 Center     Atomic      Atomic             Coordinates (Angstroms)
 Number     Number       Type             X           Y           Z
 ---------------------------------------------------------------------
      1          8           0        2.709539    1.756384   -0.626048
      2          6           0        3.009902    0.646637   -0.261372
      3          6           0        4.226961    0.062249    0.471986
      4          6           0        3.344842   -1.178674    0.805322
      5          6           0        2.247188   -0.691349   -0.197248
      6          6           0        0.779578   -0.659964    0.230837
      7          6           0       -0.145712   -0.057554   -0.848081
      8          6           0       -1.590832    0.011051   -0.402726
      9          6           0       -2.449016   -1.084761   -0.568456
     10          6           0       -3.771272   -1.035838   -0.125287
     11          6           0       -4.259950    0.116089    0.494010
     12          6           0       -3.417183    1.215948    0.663770
     13          6           0       -2.095690    1.161596    0.218298
     14          1           0        4.618036    0.660514    1.301029
     15          1           0        5.051303   -0.156801   -0.217322
     16          1           0        2.987508   -1.167354    1.839651
     17          1           0        3.786055   -2.155741    0.595259
     18          1           0        2.347474   -1.210457   -1.162342
     19          1           0        0.450233   -1.679661    0.472826
     20          1           0        0.682420   -0.076529    1.156391
     21          1           0        0.220349    0.943343   -1.101173
     22          1           0       -0.067100   -0.664186   -1.760680
     23          1           0       -2.077745   -1.984002   -1.056492
     24          1           0       -4.421339   -1.895379   -0.268291
     25          1           0       -5.290481    0.157978    0.836622
     26          1           0       -3.789899    2.119975    1.138706
     27          1           0       -1.446024    2.024657    0.347881
 ---------------------------------------------------------------------

 SCF Done:  E(RB3LYP) =  -540.909425475     A.U. after   14 cycles

 The electronic state is 1-A.
 Alpha  occ. eigenvalues --  -19.14718 -10.27507 -10.19960 -10.19749 -10.19636
 Alpha  occ. eigenvalues --  -10.19159 -10.18998 -10.18491 -10.18433 -10.18388
 Alpha  occ. eigenvalues --  -10.18325 -10.18277 -10.18160  -1.04356  -0.85365
 Alpha  occ. eigenvalues --   -0.84683  -0.78538  -0.73704  -0.73345  -0.67124
 Alpha  occ. eigenvalues --   -0.63130  -0.61449  -0.59850  -0.57192  -0.52870
 Alpha  occ. eigenvalues --   -0.50427  -0.47791  -0.46623  -0.46199  -0.44927
 Alpha  occ. eigenvalues --   -0.43874  -0.41395  -0.41115  -0.40683  -0.39984
 Alpha  occ. eigenvalues --   -0.38881  -0.37018  -0.35733  -0.35419  -0.34494
 Alpha  occ. eigenvalues --   -0.34142  -0.33144  -0.32980  -0.31637  -0.24406
 Alpha  occ. eigenvalues --   -0.23984  -0.23558
 Alpha virt. eigenvalues --   -0.02208   0.00500   0.00617   0.09304   0.09657
 Alpha virt. eigenvalues --    0.11139   0.11874   0.12879   0.13442   0.14207
 Alpha virt. eigenvalues --    0.15200   0.16203   0.16780   0.17240   0.17820

 Mulliken charges:
               1
     1  O   -0.430508
     2  C    0.426667
     3  C   -0.357073
     4  C   -0.306549
     5  C   -0.161483
     6  C   -0.254883
     7  C   -0.364757
     8  C    0.170637
     9  C   -0.180224
    10  C   -0.128244
    11  C   -0.131550
    12  C   -0.128293
    13  C   -0.183310
    14  H    0.171580
    15  H    0.173397
    16  H    0.154152
    17  H    0.147726
    18  H    0.155548
    19  H    0.143149
    20  H    0.141257
    21  H    0.176783
    22  H    0.136651
    23  H    0.118525
    24  H    0.126290
    25  H    0.126351
    26  H    0.127848
    27  H    0.130314
 Sum of Mulliken charges =  -0.00000

 Dipole moment (field-independent basis, Debye):
    X=              0.8478    Y=             -2.4292    Z=              0.8012  Tot=              2.6947
 Quadrupole moment (field-independent basis, Debye-Ang):
   XX=            -69.4694   YY=            -78.4595   ZZ=            -77.6673
   XY=             -6.0690   XZ=              0.4200   YZ=              4.6142

  Exact polarizability: 160.571   1.822 118.066  -8.776  11.405  81.277
 Approx polarizability: 206.198   4.924 201.172 -18.933  22.646 128.046

                      1                      2                      3
                      A                      A                      A
 Frequencies --     25.4488                38.8128                58.5556
 Red. masses --      3.9470                 4.2394                 3.5415
 Frc consts  --      0.0015                 0.0038                 0.0072
 IR Inten    --      0.9077                 0.6539                 2.0876

                      4                      5                      6
                      A                      A                      A
 Frequencies --     83.0191               106.1331               170.3699
 Red. masses --      3.1664                 3.4194                 2.5657
 Frc consts  --      0.0129                 0.0227                 0.0439
 IR Inten    --      0.8764                 1.9468                 0.6387

                      7                      8                      9
                      A                      A                      A
 Frequencies --    232.0067               260.7379               348.0742
 Red. masses --      3.3796                 4.5439                 2.4288
 Frc consts  --      0.1072                 0.1820                 0.1734
 IR Inten    --      1.9838                 1.5935                 0.2264

                     10                     11                     12
                      A                      A                      A
 Frequencies --    358.5577               417.4019               440.7769
 Red. masses --      3.4152                 2.9956                 2.8892
 Frc consts  --      0.2587                 0.3075                 0.3307
 IR Inten    --      0.4710                 0.0002                 2.6253

                     13                     14                     15
                      A                      A                      A
 Frequencies --    518.3259               542.2643               586.8189
 Red. masses --      3.2179                 2.6119                 3.9456
 Frc consts  --      0.5094                 0.4525                 0.8005
 IR Inten    --      6.7016                 3.1200                 2.6919

                     16                     17                     18
                      A                      A                      A
 Frequencies --    636.7427               688.2548               715.3319
 Red. masses --      6.3335                 3.2731                 1.9954
 Frc consts  --      1.5130                 0.9135                 0.6016
 IR Inten    --      0.0208                 2.4592                20.3025

                     19                     20                     21
                      A                      A                      A
 Frequencies --    737.7333               756.7380               774.8380
 Red. masses --      1.7263                 1.5483                 2.2194
 Frc consts  --      0.5536                 0.5224                 0.7851
 IR Inten    --      8.6206                11.3776                13.0622

                     22                     23                     24
                      A                      A                      A
 Frequencies --    793.7318               833.7729               861.2992
 Red. masses --      1.3237                 3.4996                 1.2484
 Frc consts  --      0.4914                 1.4334                 0.5456
 IR Inten    --      1.0913                 0.9918                 0.0109

                     25                     26                     27
                      A                      A                      A
 Frequencies --    917.9864               926.9188               939.2879
 Red. masses --      1.6597                 1.9286                 2.3548
 Frc consts  --      0.8240                 0.9763                 1.2240
 IR Inten    --      1.0459                 1.9751                 3.7672

                     28                     29                     30
                      A                      A                      A
 Frequencies --    963.2578               965.7334               992.9341
 Red. masses --      1.3959                 1.3547                 1.2580
 Frc consts  --      0.7631                 0.7444                 0.7307
 IR Inten    --      0.2113                 0.1215                 0.0858

                     31                     32                     33
                      A                      A                      A
 Frequencies --   1013.5182              1018.5285              1041.8702
 Red. masses --      2.5105                 6.0383                 2.8237
 Frc consts  --      1.5194                 3.6907                 1.8059
 IR Inten    --      0.3523                 0.1761                44.0663

                     34                     35                     36
                      A                      A                      A
 Frequencies --   1059.0871              1074.3975              1096.2283
 Red. masses --      2.2158                 2.0217                 2.3466
 Frc consts  --      1.4644                 1.3750                 1.6615
 IR Inten    --      2.2394                 3.3737                27.0229

                     37                     38                     39
                      A                      A                      A
 Frequencies --   1114.9200              1136.3537              1186.6886
 Red. masses --      1.9659                 1.6600                 1.5078
 Frc consts  --      1.4398                 1.2629                 1.2510
 IR Inten    --     35.7424                 3.0840                 5.3711

                     40                     41                     42
                      A                      A                      A
 Frequencies --   1192.1570              1212.7853              1213.5638
 Red. masses --      1.1040                 1.3835                 1.1517
 Frc consts  --      0.9245                 1.1990                 0.9993
 IR Inten    --      0.0493                 0.5639                 0.1244

                     43                     44                     45
                      A                      A                      A
 Frequencies --   1233.8154              1242.1923              1260.4552
 Red. masses --      2.5715                 1.2295                 1.3103
 Frc consts  --      2.3064                 1.1177                 1.2265
 IR Inten    --      0.7449                 5.4591                 3.4569

                     46                     47                     48
                      A                      A                      A
 Frequencies --   1269.7103              1309.5739              1325.0504
 Red. masses --      1.4754                 1.5188                 1.4090
 Frc consts  --      1.4014                 1.5346                 1.4576
 IR Inten    --      3.6911                 4.8038                 0.6852

                     49                     50                     51
                      A                      A                      A
 Frequencies --   1361.8540              1362.5863              1373.0925
 Red. masses --      2.8167                 1.6988                 1.2405
 Frc consts  --      3.0779                 1.8583                 1.3780
 IR Inten    --      3.3500                 2.5018                 0.0938

                     52                     53                     54
                      A                      A                      A
 Frequencies --   1399.1532              1471.9610              1501.7230
 Red. masses --      1.4953                 1.0968                 2.1684
 Frc consts  --      1.7247                 1.4001                 2.8812
 IR Inten    --      4.3947                 5.7991                 4.5836

                     55                     56                     57
                      A                      A                      A
 Frequencies --   1515.6340              1522.4857              1534.8232
 Red. masses --      1.0905                 1.1022                 1.1044
 Frc consts  --      1.4760                 1.5053                 1.5329
 IR Inten    --      0.5276                 1.1062                 3.4685

                     58                     59                     60
                      A                      A                      A
 Frequencies --   1546.9615              1643.8004              1665.6497
 Red. masses --      2.2093                 5.4454                 5.5871
 Frc consts  --      3.1150                 8.6692                 9.1328
 IR Inten    --     11.4576                 1.2209                 6.6119

                     61                     62                     63
                      A                      A                      A
 Frequencies --   1874.9065              3026.3528              3031.7052
 Red. masses --     12.5217                 1.0809                 1.0614
 Frc consts  --     25.9342                 5.8330                 5.7476
 IR Inten    --    212.5101                 4.6032                 6.4993

                     64                     65                     66
                      A                      A                      A
 Frequencies --   3040.7146              3068.8118              3069.8426
 Red. masses --      1.0680                 1.0680                 1.0927
 Frc consts  --      5.8180                 5.9262                 6.0672
 IR Inten    --     43.4065                16.2119                15.5110

                     67                     68                     69
                      A                      A                      A
 Frequencies --   3085.6041              3104.6322              3122.4543
 Red. masses --      1.0614                 1.0991                 1.1040
 Frc consts  --      5.9537                 6.2419                 6.3421
 IR Inten    --     24.7742                13.6987                 6.7359

                     70                     71                     72
                      A                      A                      A
 Frequencies --   3142.7087              3168.7030              3174.2264
 Red. masses --      1.1076                 1.0866                 1.0866
 Frc consts  --      6.4455                 6.4282                 6.4506
 IR Inten    --     28.7517                11.0992                 4.4708

                     73                     74                     75
                      A                      A                      A
 Frequencies --   3185.1603              3194.0085              3206.4586
 Red. masses --      1.0897                 1.0938                 1.0978
 Frc consts  --      6.5136                 6.5744                 6.6501
 IR Inten    --      8.0290                43.0184                24.5462

 - Thermochemistry -
 -------------------
 Temperature   298.150 Kelvin.  Pressure   1.00000 Atm.
 Atom     1 has atomic number  8 and mass  15.99491

 Molecular mass:   174.10447 amu.
 Principal axes and moments of inertia in atomic units:
                           1         2         3
     Eigenvalues --   819.741105465.334465870.52248
           X            0.99995  -0.00939   0.00320
           Y            0.00928   0.99939   0.03380
           Z           -0.00351  -0.03377   0.99942
 This molecule is an asymmetric top.
 Rotational symmetry number  1.
 Warning -- assumption of classical behavior for rotation
           may cause significant error
 Rotational temperatures (Kelvin)      0.10566     0.01585     0.01475
 Rotational constants (GHZ):           2.20160     0.33022     0.30742
 Zero-point vibrational energy     604645.1 (Joules/Mol)
                                  144.51366 (Kcal/Mol)
 Warning -- explicit consideration of  15 degrees of freedom as
           vibrations may cause significant error
 Vibrational temperatures:     36.62    55.84    84.25   119.45   152.70
          (Kelvin)            245.12   333.81   375.14   500.80   515.88
                              600.55   634.18   745.76   780.20   844.30
                              916.13   990.25  1029.20  1061.43  1088.78
                             1114.82  1142.00  1199.61  1239.22  1320.78
                             1333.63  1351.43  1385.91  1389.47  1428.61
                             1458.23  1465.44  1499.02  1523.79  1545.82
                             1577.23  1604.12  1634.96  1707.38  1715.25
                             1744.93  1746.05  1775.19  1787.24  1813.51
                             1826.83  1884.18  1906.45  1959.40  1960.46
                             1975.57  2013.07  2117.82  2160.64  2180.66
                             2190.52  2208.27  2225.73  2365.06  2396.50
                             2697.57  4354.25  4361.95  4374.91  4415.34
                             4416.82  4439.50  4466.87  4492.52  4521.66
                             4559.06  4567.00  4582.74  4595.47  4613.38

 Zero-point correction=                           0.230297 (Hartree/Particle)
 Thermal correction to Energy=                    0.242187
 Thermal correction to Enthalpy=                  0.243131
 Thermal correction to Gibbs Free Energy=         0.189991
 Sum of electronic and zero-point Energies=           -540.679128
 Sum of electronic and thermal Energies=              -540.667239
 Sum of electronic and thermal Enthalpies=            -540.666294
 Sum of electronic and thermal Free Energies=         -540.719434

                     E (Thermal)             CV                S
                      KCal/Mol        Cal/Mol-Kelvin    Cal/Mol-Kelvin
 Total                  151.975             45.067            111.842
 Electronic               0.000              0.000              0.000
 Translational            0.889              2.981             41.371
 Rotational               0.889              2.981             31.642
 Vibrational            150.197             39.105             38.829
 Vibration     1          0.593              1.985              6.156
 Vibration     2          0.594              1.981              5.319
 Vibration     3          0.596              1.974              4.505
 Vibration     4          0.600              1.961              3.818
 Vibration     5          0.605              1.944              3.338
 Vibration     6          0.625              1.879              2.431
 Vibration     7          0.653              1.792              1.863
 Vibration     8          0.669              1.745              1.657
 Vibration     9          0.726              1.579              1.175
 Vibration    10          0.733              1.558              1.128
 Vibration    11          0.780              1.432              0.901
 Vibration    12          0.801              1.381              0.824
 Vibration    13          0.873              1.209              0.614
 Vibration    14          0.897              1.157              0.560
 Vibration    15          0.944              1.060              0.473

 Normal termination of Gaussian 16 at Sat Feb 24 04:12:31 2024.
