 Gaussian 16, Revision A.03,
 Gaussian 16:  EM64M-G16RevA.03 25-Dec-2016

 ---------------------
 # freq b3lyp/6-31g(d)
 ---------------------

 ---------
 good luck
 ---------
 Symbolic Z-matrix:
 Charge =  0 Multiplicity = 1

                         Standard orientation:
 ---------------------------------------------------------------------
 Center     Atomic      Atomic             Coordinates (Angstroms)
 Number     Number       Type             X           Y           Z
 ---------------------------------------------------------------------
      1          8           0       -2.797780   -1.645311   -0.334628
      2          6           0       -2.051717   -0.765886    0.047827
      3          6           0       -0.562011   -1.015086    0.269900
      4          6           0        0.314565    0.086423   -0.366693
      5          6           0        1.781201   -0.137572   -0.036056
      6          9           0        2.204861   -1.352714   -0.448377
      7          9           0        2.569804    0.785685   -0.631544
      8          9           0        2.014160   -0.062832    1.296267
      9          6           0       -0.149594    1.492445    0.053361
     10          6           0       -1.627259    1.710521   -0.297392
     11          6           0       -2.532520    0.645815    0.353333
     12          1           0       -0.311926   -2.005239   -0.117933
     13          1           0       -0.380505   -1.022582    1.354675
     14          1           0        0.247064    0.003726   -1.459694
     15          1           0       -0.000806    1.610519    1.135019
     16          1           0        0.473014    2.247335   -0.438056
     17          1           0       -1.944145    2.710002    0.021135
     18          1           0       -1.753225    1.675885   -1.388198
     19          1           0       -3.573577    0.736005    0.030853
     20          1           0       -2.509076    0.775621    1.446439
 ---------------------------------------------------------------------

 SCF Done:  E(RB3LYP) =  -646.930664148     A.U. after   13 cycles

 The electronic state is 1-A.
 Alpha  occ. eigenvalues --  -24.72820 -24.72760 -24.72712 -19.14515 -10.43249
 Alpha  occ. eigenvalues --  -10.28251 -10.22840 -10.20833 -10.20789 -10.20713
 Alpha  occ. eigenvalues --  -10.20235  -1.30413  -1.21737  -1.21722  -1.04459
 Alpha  occ. eigenvalues --   -0.85880  -0.78842  -0.74546  -0.70314  -0.64285
 Alpha  occ. eigenvalues --   -0.61869  -0.58784  -0.57942  -0.55198  -0.52837
 Alpha  occ. eigenvalues --   -0.49296  -0.47450  -0.46425  -0.45793  -0.44866
 Alpha  occ. eigenvalues --   -0.44342  -0.43905  -0.41905  -0.41514  -0.40834
 Alpha  occ. eigenvalues --   -0.40213  -0.38757  -0.37486  -0.37077  -0.35006
 Alpha  occ. eigenvalues --   -0.34573  -0.34041  -0.24863
 Alpha virt. eigenvalues --   -0.02474   0.08067   0.09428   0.11747   0.12322
 Alpha virt. eigenvalues --    0.13129   0.14186   0.15098   0.15439   0.15875
 Alpha virt. eigenvalues --    0.16355   0.17598   0.20349   0.21560   0.22123

 Mulliken charges:
               1
     1  O   -0.437526
     2  C    0.451982
     3  C   -0.367845
     4  C   -0.230126
     5  C    0.841512
     6  F   -0.272467
     7  F   -0.274332
     8  F   -0.273744
     9  C   -0.283909
    10  C   -0.279300
    11  C   -0.344957
    12  H    0.183303
    13  H    0.173693
    14  H    0.166122
    15  H    0.152406
    16  H    0.161594
    17  H    0.153180
    18  H    0.150218
    19  H    0.169931
    20  H    0.160265
 Sum of Mulliken charges =  -0.00000

 Dipole moment (field-independent basis, Debye):
    X=             -0.2701    Y=              2.5730    Z=              0.4767  Tot=              2.6307
 Quadrupole moment (field-independent basis, Debye-Ang):
   XX=            -72.9488   YY=            -64.8212   ZZ=            -60.8206
   XY=             -7.1629   XZ=             -2.5696   YZ=             -1.3056

  Exact polarizability:  79.934   1.951  75.444   0.608   1.644  61.008
 Approx polarizability: 103.429   8.525 108.349   3.487   5.708  97.066

                      1                      2                      3
                      A                      A                      A
 Frequencies --     58.8416                93.6854               102.3010
 Red. masses --     11.1202                 3.8520                 3.2856
 Frc consts  --      0.0227                 0.0199                 0.0203
 IR Inten    --      2.1088                 2.6881                 1.2821

                      4                      5                      6
                      A                      A                      A
 Frequencies --    162.1478               222.0413               279.2036
 Red. masses --      7.6894                 3.0366                 3.5549
 Frc consts  --      0.1191                 0.0882                 0.1633
 IR Inten    --      2.6044                 0.1304                 2.5874

                      7                      8                      9
                      A                      A                      A
 Frequencies --    305.7136               368.5803               404.7281
 Red. masses --      4.3848                 7.8707                 3.2120
 Frc consts  --      0.2415                 0.6300                 0.3100
 IR Inten    --      1.8636                 2.9822                 2.0237

                     10                     11                     12
                      A                      A                      A
 Frequencies --    446.3638               469.9855               503.8035
 Red. masses --      4.1691                 1.7730                 4.6077
 Frc consts  --      0.4894                 0.2307                 0.6891
 IR Inten    --      0.5447                 0.5298                 9.7123

                     13                     14                     15
                      A                      A                      A
 Frequencies --    546.4923               565.2942               641.6264
 Red. masses --      6.0849                 8.6343                 4.1799
 Frc consts  --      1.0707                 1.6257                 1.0139
 IR Inten    --      4.6967                 1.8466                 0.4214

                     16                     17                     18
                      A                      A                      A
 Frequencies --    686.6153               763.8139               816.1173
 Red. masses --      5.9125                 2.0577                 3.8979
 Frc consts  --      1.6423                 0.7073                 1.5296
 IR Inten    --     12.2273                 3.8005                 0.3101

                     19                     20                     21
                      A                      A                      A
 Frequencies --    871.4633               884.5010               904.4416
 Red. masses --      1.7264                 2.1654                 1.8158
 Frc consts  --      0.7725                 0.9981                 0.8751
 IR Inten    --      6.2964                 1.7849                 7.9418

                     22                     23                     24
                      A                      A                      A
 Frequencies --    930.0969               992.5489              1052.8978
 Red. masses --      2.4566                 2.4716                 1.8774
 Frc consts  --      1.2521                 1.4346                 1.2263
 IR Inten    --      3.8482                15.9938                 9.2153

                     25                     26                     27
                      A                      A                      A
 Frequencies --   1081.0327              1105.5664              1118.8684
 Red. masses --      1.1436                 2.8597                 2.6806
 Frc consts  --      0.7874                 2.0594                 1.9771
 IR Inten    --      7.0164                27.7416                30.1969

                     28                     29                     30
                      A                      A                      A
 Frequencies --   1170.7712              1196.5310              1240.5061
 Red. masses --      2.8054                 3.6804                 2.5094
 Frc consts  --      2.2656                 3.1045                 2.2752
 IR Inten    --    116.7690               167.1088                69.5319

                     31                     32                     33
                      A                      A                      A
 Frequencies --   1249.3245              1263.1901              1288.9097
 Red. masses --      1.9498                 1.3976                 2.8033
 Frc consts  --      1.7931                 1.3140                 2.7439
 IR Inten    --     68.2335                11.0942               129.1845

                     34                     35                     36
                      A                      A                      A
 Frequencies --   1303.8029              1320.8739              1355.4076
 Red. masses --      1.5502                 1.5013                 1.4607
 Frc consts  --      1.5526                 1.5433                 1.5811
 IR Inten    --     73.5629                22.9870                21.8485

                     37                     38                     39
                      A                      A                      A
 Frequencies --   1365.5855              1384.8123              1394.4419
 Red. masses --      1.3580                 1.4369                 1.4535
 Frc consts  --      1.4920                 1.6235                 1.6652
 IR Inten    --      7.9902                 9.0909                 7.0399

                     40                     41                     42
                      A                      A                      A
 Frequencies --   1430.3944              1492.7536              1501.4047
 Red. masses --      1.7952                 1.0950                 1.0868
 Frc consts  --      2.1641                 1.4376                 1.4434
 IR Inten    --     16.3391                 9.1762                 6.8798

                     43                     44                     45
                      A                      A                      A
 Frequencies --   1523.9918              1531.6760              1822.9626
 Red. masses --      1.0822                 1.0961                11.1012
 Frc consts  --      1.4809                 1.5151                21.7359
 IR Inten    --      8.9832                 1.2813               187.9810

                     46                     47                     48
                      A                      A                      A
 Frequencies --   3022.9788              3039.0266              3042.1860
 Red. masses --      1.0698                 1.0705                 1.0669
 Frc consts  --      5.7600                 5.8250                 5.8176
 IR Inten    --      5.0806                 1.4045                23.4685

                     49                     50                     51
                      A                      A                      A
 Frequencies --   3048.0562              3059.7253              3092.6818
 Red. masses --      1.0691                 1.0747                 1.0983
 Frc consts  --      5.8523                 5.9280                 6.1895
 IR Inten    --      9.0934                26.0903                35.0602

                     52                     53                     54
                      A                      A                      A
 Frequencies --   3107.6122              3123.2654              3139.0790
 Red. masses --      1.1000                 1.0943                 1.0949
 Frc consts  --      6.2591                 6.2893                 6.3568
 IR Inten    --     25.6348                16.5840                 7.5080

 - Thermochemistry -
 -------------------
 Temperature   298.150 Kelvin.  Pressure   1.00000 Atm.
 Atom     1 has atomic number  8 and mass  15.99491

 Molecular mass:   166.06055 amu.
 Principal axes and moments of inertia in atomic units:
                           1         2         3
     Eigenvalues --   927.940672527.241593028.32663
           X            0.99973  -0.02291  -0.00392
           Y            0.02287   0.99969  -0.00992
           Z            0.00415   0.00983   0.99994
 This molecule is an asymmetric top.
 Rotational symmetry number  1.
 Warning -- assumption of classical behavior for rotation
           may cause significant error
 Rotational temperatures (Kelvin)      0.09334     0.03427     0.02860
 Rotational constants (GHZ):           1.94489     0.71412     0.59595
 Zero-point vibrational energy     412058.0 (Joules/Mol)
                                   98.48423 (Kcal/Mol)
 Warning -- explicit consideration of  14 degrees of freedom as
           vibrations may cause significant error
 Vibrational temperatures:     84.66   134.79   147.19   233.29   319.47
          (Kelvin)            401.71   439.85   530.30   582.31   642.22
                              676.20   724.86   786.28   813.33   923.16
                              987.89  1098.96  1174.21  1253.84  1272.60
                             1301.29  1338.20  1428.06  1514.89  1555.36
                             1590.66  1609.80  1684.48  1721.54  1784.81
                             1797.50  1817.45  1854.45  1875.88  1900.44
                             1950.13  1964.77  1992.44  2006.29  2058.02
                             2147.74  2160.19  2192.68  2203.74  2622.84
                             4349.39  4372.48  4377.03  4385.47  4402.26
                             4449.68  4471.16  4493.68  4516.43

 Zero-point correction=                           0.156945 (Hartree/Particle)
 Thermal correction to Energy=                    0.166784
 Thermal correction to Enthalpy=                  0.167728
 Thermal correction to Gibbs Free Energy=         0.121063
 Sum of electronic and zero-point Energies=           -646.773720
 Sum of electronic and thermal Energies=              -646.763880
 Sum of electronic and thermal Enthalpies=            -646.762936
 Sum of electronic and thermal Free Energies=         -646.809601

                     E (Thermal)             CV                S
                      KCal/Mol        Cal/Mol-Kelvin    Cal/Mol-Kelvin
 Total                  104.658             37.042             98.215
 Electronic               0.000              0.000              0.000
 Translational            0.889              2.981             41.230
 Rotational               0.889              2.981             30.341
 Vibrational            102.881             31.081             26.643
 Vibration     1          0.596              1.974              4.496
 Vibration     2          0.603              1.954              3.582
 Vibration     3          0.604              1.947              3.410
 Vibration     4          0.622              1.889              2.525
 Vibration     5          0.648              1.808              1.942
 Vibration     6          0.680              1.712              1.539
 Vibration     7          0.696              1.663              1.385
 Vibration     8          0.741              1.537              1.086
 Vibration     9          0.770              1.460              0.945
 Vibration    10          0.806              1.369              0.807
 Vibration    11          0.827              1.317              0.738
 Vibration    12          0.859              1.242              0.649
 Vibration    13          0.902              1.147              0.551
 Vibration    14          0.921              1.106              0.513

 Normal termination of Gaussian 16 at Thu Feb 22 11:16:26 2024.
