 Gaussian 16, Revision A.03,
 Gaussian 16:  EM64M-G16RevA.03 25-Dec-2016

 ---------------------
 # freq b3lyp/6-31g(d)
 ---------------------

 ---------
 good luck
 ---------
 Symbolic Z-matrix:
 Charge =  0 Multiplicity = 1

                         Standard orientation:
 ---------------------------------------------------------------------
 Center     Atomic      Atomic             Coordinates (Angstroms)
 Number     Number       Type             X           Y           Z
 ---------------------------------------------------------------------
      1          8           0        2.156157   -1.769193   -0.427797
      2          6           0        1.715202   -0.752224    0.067821
      3          6           0        0.625633   -0.788979    1.140109
      4          6           0       -0.481272    0.271764    0.943378
      5          6           0       -1.474084   -0.178388   -0.119886
      6          9           0       -2.428099    0.755138   -0.334545
      7          9           0       -0.881672   -0.427233   -1.314414
      8          9           0       -2.104743   -1.315054    0.250166
      9          6           0        0.115778    1.664971    0.651300
     10          6           0        1.133741    1.667131   -0.500000
     11          6           0        2.252502    0.631094   -0.274943
     12          1           0        0.216318   -1.800886    1.191968
     13          1           0        1.116536   -0.582489    2.102091
     14          1           0       -1.078347    0.331604    1.861340
     15          1           0       -0.692131    2.375327    0.447696
     16          1           0        0.609110    2.006845    1.571134
     17          1           0        1.573218    2.666689   -0.596595
     18          1           0        0.627545    1.454432   -1.446877
     19          1           0        2.872508    0.952770    0.577156
     20          1           0        2.911620    0.541385   -1.143067
 ---------------------------------------------------------------------

 SCF Done:  E(RB3LYP) =  -646.928883948     A.U. after   13 cycles

 The electronic state is 1-A.
 Alpha  occ. eigenvalues --  -24.72974 -24.72839 -24.72663 -19.14000 -10.43243
 Alpha  occ. eigenvalues --  -10.27848 -10.22863 -10.20811 -10.20744 -10.20145
 Alpha  occ. eigenvalues --  -10.19866  -1.30453  -1.21815  -1.21700  -1.04005
 Alpha  occ. eigenvalues --   -0.85598  -0.78446  -0.74310  -0.70348  -0.64236
 Alpha  occ. eigenvalues --   -0.61720  -0.58660  -0.58319  -0.55658  -0.51685
 Alpha  occ. eigenvalues --   -0.48345  -0.46708  -0.46271  -0.45796  -0.45606
 Alpha  occ. eigenvalues --   -0.44425  -0.42737  -0.42303  -0.41325  -0.40991
 Alpha  occ. eigenvalues --   -0.40354  -0.39971  -0.36785  -0.36629  -0.34626
 Alpha  occ. eigenvalues --   -0.34179  -0.33500  -0.24389
 Alpha virt. eigenvalues --   -0.01990   0.07354   0.10133   0.11501   0.12189
 Alpha virt. eigenvalues --    0.13872   0.14713   0.15082   0.15702   0.16401
 Alpha virt. eigenvalues --    0.17541   0.18995   0.20126   0.20466   0.22442

 Mulliken charges:
               1
     1  O   -0.440517
     2  C    0.462601
     3  C   -0.373770
     4  C   -0.221376
     5  C    0.829403
     6  F   -0.271915
     7  F   -0.262367
     8  F   -0.270284
     9  C   -0.289880
    10  C   -0.280238
    11  C   -0.346532
    12  H    0.184984
    13  H    0.168690
    14  H    0.165280
    15  H    0.162813
    16  H    0.144440
    17  H    0.147075
    18  H    0.165604
    19  H    0.155475
    20  H    0.170514
 Sum of Mulliken charges =  -0.00000

 Dipole moment (field-independent basis, Debye):
    X=              0.2633    Y=              3.1019    Z=              2.3584  Tot=              3.9055
 Quadrupole moment (field-independent basis, Debye-Ang):
   XX=            -67.1072   YY=            -65.9805   ZZ=            -59.9435
   XY=              5.6478   XZ=              1.3007   YZ=             -1.7974

  Exact polarizability:  73.871  -1.576  76.182  -4.923   0.561  64.822
 Approx polarizability:  98.644  -5.343 111.737  -6.251   6.055  98.045

                      1                      2                      3
                      A                      A                      A
 Frequencies --     62.0142                82.6825               102.8642
 Red. masses --      9.2940                 9.8317                 3.8079
 Frc consts  --      0.0211                 0.0396                 0.0237
 IR Inten    --      0.3565                 1.6705                 1.2785

                      4                      5                      6
                      A                      A                      A
 Frequencies --    210.7501               244.4590               287.5111
 Red. masses --      4.0553                 4.1253                 3.6894
 Frc consts  --      0.1061                 0.1453                 0.1797
 IR Inten    --      1.4818                 3.3582                 0.6508

                      7                      8                      9
                      A                      A                      A
 Frequencies --    325.7143               367.2217               431.0525
 Red. masses --      3.1266                 3.6919                 2.7508
 Frc consts  --      0.1954                 0.2933                 0.3011
 IR Inten    --      2.2131                 0.3826                 4.0124

                     10                     11                     12
                      A                      A                      A
 Frequencies --    456.5546               485.4659               512.2325
 Red. masses --      3.2796                 3.7304                 6.3020
 Frc consts  --      0.4028                 0.5180                 0.9742
 IR Inten    --      4.2495                 5.0202                 2.1128

                     13                     14                     15
                      A                      A                      A
 Frequencies --    535.2250               578.2327               632.8974
 Red. masses --      4.7292                 6.9512                 4.4712
 Frc consts  --      0.7982                 1.3693                 1.0552
 IR Inten    --      9.7932                 0.2562                 1.9695

                     16                     17                     18
                      A                      A                      A
 Frequencies --    722.5882               750.5921               771.9163
 Red. masses --      3.2378                 3.1289                 2.9477
 Frc consts  --      0.9961                 1.0386                 1.0349
 IR Inten    --      2.8961                 5.6242                 0.6814

                     19                     20                     21
                      A                      A                      A
 Frequencies --    853.7354               872.4493               908.2796
 Red. masses --      2.3370                 2.0889                 1.8099
 Frc consts  --      1.0036                 0.9368                 0.8797
 IR Inten    --      2.7128                 3.1799                 8.1724

                     22                     23                     24
                      A                      A                      A
 Frequencies --    936.4160               998.7269              1040.7326
 Red. masses --      2.3255                 2.5552                 1.8496
 Frc consts  --      1.2014                 1.5017                 1.1803
 IR Inten    --      5.5265                 7.1143                12.6180

                     25                     26                     27
                      A                      A                      A
 Frequencies --   1084.4429              1096.9503              1126.0605
 Red. masses --      1.9014                 1.7000                 1.4337
 Frc consts  --      1.3175                 1.2053                 1.0711
 IR Inten    --     33.1835                10.7883                62.8089

                     28                     29                     30
                      A                      A                      A
 Frequencies --   1161.0303              1175.6772              1225.6302
 Red. masses --      2.4356                 3.0359                 2.6024
 Frc consts  --      1.9343                 2.4723                 2.3033
 IR Inten    --     59.8886               133.3240               175.2824

                     31                     32                     33
                      A                      A                      A
 Frequencies --   1232.2757              1255.0887              1286.5571
 Red. masses --      2.7271                 1.7336                 1.4035
 Frc consts  --      2.4399                 1.6090                 1.3687
 IR Inten    --    107.7880                 8.2154                13.6029

                     34                     35                     36
                      A                      A                      A
 Frequencies --   1306.3948              1331.3985              1360.7526
 Red. masses --      2.0382                 1.5332                 1.5993
 Frc consts  --      2.0495                 1.6012                 1.7448
 IR Inten    --     45.9584                21.0023                11.7916

                     37                     38                     39
                      A                      A                      A
 Frequencies --   1373.8712              1394.1138              1398.0277
 Red. masses --      1.4518                 1.4178                 1.5154
 Frc consts  --      1.6146                 1.6236                 1.7451
 IR Inten    --      0.6964                 4.7796                 6.9493

                     40                     41                     42
                      A                      A                      A
 Frequencies --   1437.9317              1489.8552              1497.1992
 Red. masses --      1.7057                 1.0922                 1.0827
 Frc consts  --      2.0779                 1.4284                 1.4300
 IR Inten    --     36.8440                 5.6821                 8.8286

                     43                     44                     45
                      A                      A                      A
 Frequencies --   1521.4223              1537.0274              1826.4276
 Red. masses --      1.0845                 1.0915                11.1858
 Frc consts  --      1.4790                 1.5193                21.9849
 IR Inten    --     12.7128                 3.1575               178.9430

                     46                     47                     48
                      A                      A                      A
 Frequencies --   3015.2526              3040.6691              3044.9678
 Red. masses --      1.0701                 1.0697                 1.0696
 Frc consts  --      5.7320                 5.8268                 5.8432
 IR Inten    --      9.8371                 8.9083                21.1509

                     49                     50                     51
                      A                      A                      A
 Frequencies --   3066.9357              3070.0639              3103.7624
 Red. masses --      1.0649                 1.0836                 1.0955
 Frc consts  --      5.9017                 6.0175                 6.2176
 IR Inten    --     34.2640                18.7034                17.3506

                     52                     53                     54
                      A                      A                      A
 Frequencies --   3114.0735              3123.3779              3135.3400
 Red. masses --      1.0981                 1.0952                 1.0940
 Frc consts  --      6.2742                 6.2947                 6.3362
 IR Inten    --     22.8064                18.9671                 6.6963

 - Thermochemistry -
 -------------------
 Temperature   298.150 Kelvin.  Pressure   1.00000 Atm.
 Atom     1 has atomic number  8 and mass  15.99491

 Molecular mass:   166.06055 amu.
 Principal axes and moments of inertia in atomic units:
                           1         2         3
     Eigenvalues --  1064.071781940.209592358.04637
           X            0.99956   0.02805  -0.00922
           Y           -0.02820   0.99946  -0.01713
           Z            0.00873   0.01738   0.99981
 This molecule is an asymmetric top.
 Rotational symmetry number  1.
 Warning -- assumption of classical behavior for rotation
           may cause significant error
 Rotational temperatures (Kelvin)      0.08140     0.04464     0.03673
 Rotational constants (GHZ):           1.69607     0.93018     0.76535
 Zero-point vibrational energy     412728.9 (Joules/Mol)
                                   98.64459 (Kcal/Mol)
 Warning -- explicit consideration of  14 degrees of freedom as
           vibrations may cause significant error
 Vibrational temperatures:     89.22   118.96   148.00   303.22   351.72
          (Kelvin)            413.66   468.63   528.35   620.19   656.88
                              698.48   736.99   770.07   831.95   910.60
                             1039.64  1079.93  1110.62  1228.33  1255.26
                             1306.81  1347.29  1436.95  1497.38  1560.27
                             1578.27  1620.15  1670.46  1691.54  1763.41
                             1772.97  1805.79  1851.07  1879.61  1915.59
                             1957.82  1976.69  2005.82  2011.45  2068.86
                             2143.57  2154.14  2188.99  2211.44  2627.82
                             4338.28  4374.84  4381.03  4412.64  4417.14
                             4465.62  4480.46  4493.84  4511.05

 Zero-point correction=                           0.157200 (Hartree/Particle)
 Thermal correction to Energy=                    0.166873
 Thermal correction to Enthalpy=                  0.167817
 Thermal correction to Gibbs Free Energy=         0.121719
 Sum of electronic and zero-point Energies=           -646.771684
 Sum of electronic and thermal Energies=              -646.762011
 Sum of electronic and thermal Enthalpies=            -646.761067
 Sum of electronic and thermal Free Energies=         -646.807165

                     E (Thermal)             CV                S
                      KCal/Mol        Cal/Mol-Kelvin    Cal/Mol-Kelvin
 Total                  104.714             36.869             97.021
 Electronic               0.000              0.000              0.000
 Translational            0.889              2.981             41.230
 Rotational               0.889              2.981             29.966
 Vibrational            102.937             30.907             25.825
 Vibration     1          0.597              1.972              4.392
 Vibration     2          0.600              1.961              3.826
 Vibration     3          0.605              1.947              3.399
 Vibration     4          0.643              1.824              2.037
 Vibration     5          0.660              1.772              1.770
 Vibration     6          0.685              1.697              1.489
 Vibration     7          0.710              1.624              1.281
 Vibration     8          0.740              1.540              1.091
 Vibration     9          0.792              1.403              0.855
 Vibration    10          0.815              1.346              0.776
 Vibration    11          0.842              1.282              0.695
 Vibration    12          0.867              1.223              0.628
 Vibration    13          0.890              1.172              0.576
 Vibration    14          0.935              1.078              0.489

 Normal termination of Gaussian 16 at Thu Feb 22 11:14:48 2024.
