 Gaussian 16, Revision A.03,
 Gaussian 16:  EM64M-G16RevA.03 25-Dec-2016

 ---------------------
 # freq b3lyp/6-31g(d)
 ---------------------

 ---------
 good luck
 ---------
 Symbolic Z-matrix:
 Charge =  0 Multiplicity = 1

                         Standard orientation:
 ---------------------------------------------------------------------
 Center     Atomic      Atomic             Coordinates (Angstroms)
 Number     Number       Type             X           Y           Z
 ---------------------------------------------------------------------
      1          8           0       -2.956546   -1.891710    0.000000
      2          6           0       -2.125884   -1.002657    0.000000
      3          6           0       -1.542040   -0.382788    1.263101
      4          6           0       -0.006710   -0.596639    1.252723
      5          6           0       -1.856027    1.131949    1.256525
      6          6           0       -1.238670    1.772048   -0.000000
      7          6           0       -1.856026    1.131948   -1.256525
      8          6           0       -1.542039   -0.382788   -1.263101
      9          6           0       -0.006710   -0.596642   -1.252721
     10          6           0        0.659350    0.043864   -0.000000
     11          6           0        2.236592   -0.177976    0.000000
     12          6           0        2.901986    0.454993   -1.245411
     13          6           0        2.603458   -1.681259   -0.000022
     14          6           0        2.901983    0.454955    1.245432
     15          6           0        0.289257    1.555661   -0.000002
     16          1           0       -1.990377   -0.875937    2.131877
     17          1           0        0.403998   -0.161936    2.171856
     18          1           0        0.200572   -1.672155    1.289924
     19          1           0       -2.941603    1.295073    1.278070
     20          1           0       -1.443832    1.592814    2.164633
     21          1           0       -1.445997    2.850285   -0.000001
     22          1           0       -1.443831    1.592812   -2.164634
     23          1           0       -2.941603    1.295072   -1.278070
     24          1           0       -1.990376   -0.875939   -2.131878
     25          1           0        0.404000   -0.161944   -2.171855
     26          1           0        0.200570   -1.672159   -1.289917
     27          1           0        2.749790    1.537941   -1.295921
     28          1           0        3.984263    0.283584   -1.209087
     29          1           0        2.538974    0.017375   -2.180999
     30          1           0        2.228119   -2.203723   -0.885783
     31          1           0        3.694257   -1.791581   -0.000010
     32          1           0        2.228094   -2.203756    0.885708
     33          1           0        2.749761    1.537896    1.295992
     34          1           0        2.538988    0.017287    2.181005
     35          1           0        3.984263    0.283572    1.209093
     36          1           0        0.716599    2.050545   -0.880333
     37          1           0        0.716601    2.050548    0.880327
 ---------------------------------------------------------------------

 SCF Done:  E(RB3LYP) =  -621.979862727     A.U. after   13 cycles

 The electronic state is 1-A.
 Alpha  occ. eigenvalues --  -19.12827 -10.25887 -10.20289 -10.20179 -10.19236
 Alpha  occ. eigenvalues --  -10.18987 -10.18985 -10.18810 -10.18809 -10.18638
 Alpha  occ. eigenvalues --  -10.18637 -10.18134 -10.17408 -10.17407 -10.17340
 Alpha  occ. eigenvalues --   -1.02629  -0.87387  -0.81782  -0.77705  -0.76574
 Alpha  occ. eigenvalues --   -0.74691  -0.68884  -0.68531  -0.66963  -0.64285
 Alpha  occ. eigenvalues --   -0.59950  -0.59840  -0.57187  -0.53373  -0.50308
 Alpha  occ. eigenvalues --   -0.46106  -0.46030  -0.45393  -0.44416  -0.44251
 Alpha  occ. eigenvalues --   -0.43599  -0.43060  -0.42809  -0.41438  -0.41117
 Alpha  occ. eigenvalues --   -0.40105  -0.39361  -0.37623  -0.37114  -0.37107
 Alpha  occ. eigenvalues --   -0.36192  -0.35375  -0.34668  -0.34608  -0.33663
 Alpha  occ. eigenvalues --   -0.33179  -0.32284  -0.32046  -0.29374  -0.28705
 Alpha  occ. eigenvalues --   -0.28477  -0.22567
 Alpha virt. eigenvalues --   -0.00555   0.06392   0.09639   0.11105   0.11271
 Alpha virt. eigenvalues --    0.11732   0.12180   0.12276   0.13329   0.13878
 Alpha virt. eigenvalues --    0.14046   0.14906   0.16121   0.16503   0.17321

 Mulliken charges:
               1
     1  O   -0.462732
     2  C    0.455302
     3  C   -0.168311
     4  C   -0.307953
     5  C   -0.278474
     6  C   -0.096525
     7  C   -0.278474
     8  C   -0.168311
     9  C   -0.307953
    10  C    0.106177
    11  C    0.098698
    12  C   -0.460336
    13  C   -0.461255
    14  C   -0.460336
    15  C   -0.292662
    16  H    0.140218
    17  H    0.138899
    18  H    0.146354
    19  H    0.142740
    20  H    0.135616
    21  H    0.123705
    22  H    0.135616
    23  H    0.142740
    24  H    0.140218
    25  H    0.138899
    26  H    0.146354
    27  H    0.143941
    28  H    0.139846
    29  H    0.144191
    30  H    0.145637
    31  H    0.139705
    32  H    0.145637
    33  H    0.143941
    34  H    0.144191
    35  H    0.139846
    36  H    0.132426
    37  H    0.132425
 Sum of Mulliken charges =  -0.00000

 Dipole moment (field-independent basis, Debye):
    X=              2.3563    Y=              2.3214    Z=              0.0000  Tot=              3.3077
 Quadrupole moment (field-independent basis, Debye-Ang):
   XX=           -101.5241   YY=            -97.3437   ZZ=            -90.9845
   XY=             -8.7273   XZ=             -0.0000   YZ=             -0.0000

  Exact polarizability: 153.746   1.806 129.998   0.000   0.000 127.313
 Approx polarizability: 205.840  11.112 201.010   0.000   0.000 193.368

 ******    1 imaginary frequencies (negative Signs) ******

                      1                      2                      3
                      A                      A                      A
 Frequencies --    -54.9537                87.5393               176.3335
 Red. masses --      2.2166                 8.5217                 2.8002
 Frc consts  --      0.0039                 0.0385                 0.0513
 IR Inten    --      0.1015                 3.2479                 0.0822

                      4                      5                      6
                      A                      A                      A
 Frequencies --    211.4005               226.3836               250.3137
 Red. masses --      3.0061                 1.1533                 1.1720
 Frc consts  --      0.0792                 0.0348                 0.0433
 IR Inten    --      0.1958                 0.0562                 0.0240

                      7                      8                      9
                      A                      A                      A
 Frequencies --    253.5457               261.6007               304.7942
 Red. masses --      1.1530                 2.0795                 2.3148
 Frc consts  --      0.0437                 0.0838                 0.1267
 IR Inten    --      0.0097                 0.6000                 0.0907

                     10                     11                     12
                      A                      A                      A
 Frequencies --    312.1238               339.6127               357.0836
 Red. masses --      3.5657                 2.0614                 2.1859
 Frc consts  --      0.2047                 0.1401                 0.1642
 IR Inten    --      0.2585                 0.0438                 0.2276

                     13                     14                     15
                      A                      A                      A
 Frequencies --    370.7232               389.4406               391.9557
 Red. masses --      4.4545                 2.0281                 3.7202
 Frc consts  --      0.3607                 0.1812                 0.3367
 IR Inten    --      0.7198                 0.0845                 0.0586

                     16                     17                     18
                      A                      A                      A
 Frequencies --    422.0936               435.6889               452.3245
 Red. masses --      1.9146                 1.8669                 2.9606
 Frc consts  --      0.2010                 0.2088                 0.3569
 IR Inten    --      0.2164                 0.1552                 4.0417

                     19                     20                     21
                      A                      A                      A
 Frequencies --    460.7075               481.6085               539.2006
 Red. masses --      2.5305                 3.3979                 2.4867
 Frc consts  --      0.3165                 0.4643                 0.4260
 IR Inten    --      0.1314                 7.1724                 0.1025

                     22                     23                     24
                      A                      A                      A
 Frequencies --    617.8611               636.5825               675.4826
 Red. masses --      5.4339                 3.6726                 4.3858
 Frc consts  --      1.2222                 0.8769                 1.1790
 IR Inten    --      0.2480                 1.4019                 0.2138

                     25                     26                     27
                      A                      A                      A
 Frequencies --    720.5223               785.2351               799.8199
 Red. masses --      4.0088                 3.7666                 3.2020
 Frc consts  --      1.2262                 1.3683                 1.2069
 IR Inten    --      1.7899                 0.5458                 0.1964

                     28                     29                     30
                      A                      A                      A
 Frequencies --    812.3932               862.2301               890.6112
 Red. masses --      2.6993                 2.6909                 2.7830
 Frc consts  --      1.0496                 1.1787                 1.3006
 IR Inten    --      1.1211                 0.7176                 4.6874

                     31                     32                     33
                      A                      A                      A
 Frequencies --    893.3920               900.9893               916.2739
 Red. masses --      1.6124                 1.6141                 2.4782
 Frc consts  --      0.7582                 0.7720                 1.2258
 IR Inten    --      2.7490                 0.0156                 4.3589

                     34                     35                     36
                      A                      A                      A
 Frequencies --    936.9347               938.1114               951.4334
 Red. masses --      1.9328                 1.7938                 2.0217
 Frc consts  --      0.9997                 0.9301                 1.0783
 IR Inten    --      0.4972                 1.1761                 0.2974

                     37                     38                     39
                      A                      A                      A
 Frequencies --    968.3606               970.3523               989.6756
 Red. masses --      1.1950                 2.2098                 2.3009
 Frc consts  --      0.6602                 1.2259                 1.3278
 IR Inten    --      0.0029                 0.7630                 2.0166

                     40                     41                     42
                      A                      A                      A
 Frequencies --   1012.2343              1044.3185              1050.9695
 Red. masses --      1.9574                 1.6959                 1.5694
 Frc consts  --      1.1816                 1.0897                 1.0213
 IR Inten    --      1.7553                 0.1924                 2.3198

                     43                     44                     45
                      A                      A                      A
 Frequencies --   1061.9585              1080.8732              1081.2820
 Red. masses --      1.8269                 4.3555                 2.0232
 Frc consts  --      1.2139                 2.9980                 1.3937
 IR Inten    --      0.0513                 2.8917                 5.4206

                     46                     47                     48
                      A                      A                      A
 Frequencies --   1084.2635              1103.2432              1129.7959
 Red. masses --      1.5961                 1.7300                 1.4571
 Frc consts  --      1.1056                 1.2406                 1.0958
 IR Inten    --     21.0275                 0.5075                 0.7304

                     49                     50                     51
                      A                      A                      A
 Frequencies --   1142.2991              1169.2528              1205.0868
 Red. masses --      1.3284                 1.1030                 1.2523
 Frc consts  --      1.0212                 0.8884                 1.0715
 IR Inten    --      0.0019                 0.3977                 0.4053

                     52                     53                     54
                      A                      A                      A
 Frequencies --   1224.5093              1245.3223              1258.3918
 Red. masses --      1.9301                 1.7121                 1.9978
 Frc consts  --      1.7051                 1.5644                 1.8639
 IR Inten    --      0.2087                 2.2040                14.1221

                     55                     56                     57
                      A                      A                      A
 Frequencies --   1259.0836              1277.0931              1289.1427
 Red. masses --      2.4090                 1.6394                 2.0651
 Frc consts  --      2.2501                 1.5754                 2.0221
 IR Inten    --     23.6721                 0.6453                 0.8875

                     58                     59                     60
                      A                      A                      A
 Frequencies --   1305.3443              1307.9562              1334.8801
 Red. masses --      1.6252                 1.4819                 1.5682
 Frc consts  --      1.6316                 1.4937                 1.6464
 IR Inten    --      0.2074                 0.0000                 5.1817

                     61                     62                     63
                      A                      A                      A
 Frequencies --   1338.8580              1355.3379              1363.6830
 Red. masses --      1.7293                 1.4402                 1.4175
 Frc consts  --      1.8263                 1.5587                 1.5531
 IR Inten    --      2.1561                 0.4805                 1.0286

                     64                     65                     66
                      A                      A                      A
 Frequencies --   1382.7412              1389.6005              1399.3343
 Red. masses --      1.6748                 1.4419                 1.5049
 Frc consts  --      1.8867                 1.6405                 1.7362
 IR Inten    --      4.6761                 0.9859                 1.1257

                     67                     68                     69
                      A                      A                      A
 Frequencies --   1401.2460              1413.6967              1433.2887
 Red. masses --      1.5484                 1.4094                 1.2265
 Frc consts  --      1.7912                 1.6595                 1.4845
 IR Inten    --      1.2035                 0.8242                 5.6591

                     70                     71                     72
                      A                      A                      A
 Frequencies --   1434.3740              1465.0157              1509.2242
 Red. masses --      1.2223                 1.2129                 1.0838
 Frc consts  --      1.4816                 1.5337                 1.4544
 IR Inten    --      6.6964                10.5681                 0.1769

                     73                     74                     75
                      A                      A                      A
 Frequencies --   1513.5589              1519.5622              1520.3711
 Red. masses --      1.0828                 1.0553                 1.0535
 Frc consts  --      1.4615                 1.4358                 1.4348
 IR Inten    --      1.8604                 0.6383                 0.3561

                     76                     77                     78
                      A                      A                      A
 Frequencies --   1521.1581              1524.2839              1524.8869
 Red. masses --      1.0536                 1.0784                 1.0874
 Frc consts  --      1.4365                 1.4762                 1.4898
 IR Inten    --      0.9567                 8.9207                 3.7423

                     79                     80                     81
                      A                      A                      A
 Frequencies --   1540.7819              1544.8116              1545.1697
 Red. masses --      1.0847                 1.0527                 1.0522
 Frc consts  --      1.5172                 1.4801                 1.4801
 IR Inten    --      2.5667                 3.0426                 2.8556

                     82                     83                     84
                      A                      A                      A
 Frequencies --   1554.0807              1820.0676              3030.0424
 Red. masses --      1.0590                11.1947                 1.0671
 Frc consts  --      1.5070                21.8494                 5.7724
 IR Inten    --     14.1788               230.8189                 4.3559

                     85                     86                     87
                      A                      A                      A
 Frequencies --   3031.6883              3041.2991              3047.4565
 Red. masses --      1.0596                 1.0661                 1.0497
 Frc consts  --      5.7381                 5.8098                 5.7436
 IR Inten    --     37.3715                27.7269                 0.4473

                     88                     89                     90
                      A                      A                      A
 Frequencies --   3049.8944              3051.3306              3052.5558
 Red. masses --      1.0497                 1.0481                 1.0473
 Frc consts  --      5.7530                 5.7495                 5.7500
 IR Inten    --     10.4604                13.0351                30.8675

                     91                     92                     93
                      A                      A                      A
 Frequencies --   3054.5553              3064.7230              3069.2442
 Red. masses --      1.0620                 1.0484                 1.1052
 Frc consts  --      5.8379                 5.8019                 6.1343
 IR Inten    --     74.8334                55.9106                 6.8899

                     94                     95                     96
                      A                      A                      A
 Frequencies --   3073.5288              3084.9119              3086.3173
 Red. masses --      1.1036                 1.0876                 1.1023
 Frc consts  --      6.1424                 6.0981                 6.1864
 IR Inten    --     67.8447                35.8919                37.3245

                     97                     98                     99
                      A                      A                      A
 Frequencies --   3087.1964              3091.4077              3093.7893
 Red. masses --      1.0862                 1.1039                 1.1029
 Frc consts  --      6.0993                 6.2156                 6.2198
 IR Inten    --     13.1774                20.9231                38.3439

                    100                    101                    102
                      A                      A                      A
 Frequencies --   3110.8816              3111.6106              3117.5352
 Red. masses --      1.0991                 1.0988                 1.0987
 Frc consts  --      6.2672                 6.2681                 6.2917
 IR Inten    --     26.4381                26.9785                79.9904

                    103                    104                    105
                      A                      A                      A
 Frequencies --   3127.7406              3130.2934              3130.7312
 Red. masses --      1.1027                 1.1008                 1.1009
 Frc consts  --      6.3556                 6.3553                 6.3574
 IR Inten    --      0.8966                45.0842                39.7382

 - Thermochemistry -
 -------------------
 Temperature   298.150 Kelvin.  Pressure   1.00000 Atm.
 Atom     1 has atomic number  8 and mass  15.99491

 Molecular mass:   206.16707 amu.
 Principal axes and moments of inertia in atomic units:
                           1         2         3
     Eigenvalues --  1688.414493654.409583879.43747
           X            0.99959  -0.02880   0.00000
           Y            0.02880   0.99959   0.00000
           Z           -0.00000  -0.00000   1.00000
 This molecule is an asymmetric top.
 Rotational symmetry number  1.
 Warning -- assumption of classical behavior for rotation
           may cause significant error
 Rotational temperatures (Kelvin)      0.05130     0.02370     0.02233
 Rotational constants (GHZ):           1.06890     0.49385     0.46521
    1 imaginary frequencies ignored.
 Zero-point vibrational energy     887700.3 (Joules/Mol)
                                  212.16547 (Kcal/Mol)
 Warning -- explicit consideration of  21 degrees of freedom as
           vibrations may cause significant error
 Vibrational temperatures:    125.95   253.70   304.16   325.72   360.15
          (Kelvin)            364.80   376.39   438.53   449.08   488.63
                              513.76   533.39   560.32   563.94   607.30
                              626.86   650.79   662.86   692.93   775.79
                              888.96   915.90   971.87  1036.67  1129.78
                             1150.76  1168.85  1240.56  1281.39  1285.39
                             1296.32  1318.31  1348.04  1349.73  1368.90
                             1393.25  1396.12  1423.92  1456.38  1502.54
                             1512.11  1527.92  1555.14  1555.72  1560.01
                             1587.32  1625.52  1643.51  1682.29  1733.85
                             1761.80  1791.74  1810.55  1811.54  1837.45
                             1854.79  1878.10  1881.86  1920.59  1926.32
                             1950.03  1962.04  1989.46  1999.33  2013.33
                             2016.08  2033.99  2062.18  2063.74  2107.83
                             2171.44  2177.67  2186.31  2187.47  2188.61
                             2193.10  2193.97  2216.84  2222.64  2223.15
                             2235.98  2618.67  4359.56  4361.92  4375.75
                             4384.61  4388.12  4390.18  4391.95  4394.82
                             4409.45  4415.96  4422.12  4438.50  4440.52
                             4441.79  4447.85  4451.27  4475.86  4476.91
                             4485.44  4500.12  4503.79  4504.42

 Zero-point correction=                           0.338107 (Hartree/Particle)
 Thermal correction to Energy=                    0.350682
 Thermal correction to Enthalpy=                  0.351626
 Thermal correction to Gibbs Free Energy=         0.301241
 Sum of electronic and zero-point Energies=           -621.641756
 Sum of electronic and thermal Energies=              -621.629181
 Sum of electronic and thermal Enthalpies=            -621.628237
 Sum of electronic and thermal Free Energies=         -621.678622

                     E (Thermal)             CV                S
                      KCal/Mol        Cal/Mol-Kelvin    Cal/Mol-Kelvin
 Total                  220.056             55.117            106.045
 Electronic               0.000              0.000              0.000
 Translational            0.889              2.981             41.875
 Rotational               0.889              2.981             31.549
 Vibrational            218.279             49.156             32.622
 Vibration     1          0.601              1.958              3.714
 Vibration     2          0.628              1.872              2.367
 Vibration     3          0.643              1.823              2.032
 Vibration     4          0.650              1.801              1.907
 Vibration     5          0.663              1.762              1.728
 Vibration     6          0.665              1.757              1.706
 Vibration     7          0.669              1.743              1.651
 Vibration     8          0.696              1.665              1.390
 Vibration     9          0.700              1.651              1.351
 Vibration    10          0.720              1.596              1.214
 Vibration    11          0.732              1.561              1.135
 Vibration    12          0.743              1.532              1.077
 Vibration    13          0.757              1.493              1.002
 Vibration    14          0.759              1.487              0.993
 Vibration    15          0.784              1.422              0.885
 Vibration    16          0.796              1.392              0.840
 Vibration    17          0.811              1.356              0.789
 Vibration    18          0.819              1.337              0.764
 Vibration    19          0.838              1.291              0.706
 Vibration    20          0.894              1.163              0.567
 Vibration    21          0.978              0.994              0.420

 Normal termination of Gaussian 16 at Sat Feb 24 18:24:19 2024.
