 Gaussian 16, Revision A.03,
 Gaussian 16:  EM64M-G16RevA.03 25-Dec-2016

 -------------------------
 # opt freq b3lyp/6-31g(d)
 -------------------------

 ---------
 good luck
 ---------
 Symbolic Z-matrix:
 Charge =  0 Multiplicity = 1

 SCF Done:  E(RB3LYP) =  -621.979862727     A.U. after   13 cycles
 SCF Done:  E(RB3LYP) =  -621.979862631     A.U. after    7 cycles
 SCF Done:  E(RB3LYP) =  -621.979862996     A.U. after    6 cycles
 Optimization completed.
    -- Stationary point found.
 Normal termination of Gaussian 16 at Sat Feb 24 18:39:50 2024.

 --------------------------------------------------------------------
 #N Geom=AllCheck Guess=TCheck SCRF=Check GenChk RB3LYP/6-31G(d) Freq
 --------------------------------------------------------------------

 Structure from the checkpoint file:  "0.chk"
 ---------
 good luck
 ---------
 Charge =  0 Multiplicity = 1

                         Standard orientation:
 ---------------------------------------------------------------------
 Center     Atomic      Atomic             Coordinates (Angstroms)
 Number     Number       Type             X           Y           Z
 ---------------------------------------------------------------------
      1          8           0       -2.957386   -1.890744    0.000016
      2          6           0       -2.126188   -1.002262    0.000009
      3          6           0       -1.542022   -0.382744    1.263076
      4          6           0       -0.006770   -0.597158    1.252648
      5          6           0       -1.855530    1.132127    1.256507
      6          6           0       -1.238008    1.772167   -0.000011
      7          6           0       -1.855532    1.132110   -1.256519
      8          6           0       -1.542025   -0.382760   -1.263067
      9          6           0       -0.006773   -0.597178   -1.252639
     10          6           0        0.659409    0.043374   -0.000001
     11          6           0        2.236559   -0.178211   -0.000001
     12          6           0        2.901426    0.455177   -1.245444
     13          6           0        2.603729   -1.681357   -0.000043
     14          6           0        2.901416    0.455105    1.245483
     15          6           0        0.289883    1.555239   -0.000012
     16          1           0       -1.990613   -0.875814    2.131790
     17          1           0        0.404248   -0.162924    2.171863
     18          1           0        0.200204   -1.672781    1.289578
     19          1           0       -2.941091    1.295439    1.278054
     20          1           0       -1.443324    1.592864    2.164698
     21          1           0       -1.445076    2.850452   -0.000018
     22          1           0       -1.443329    1.592836   -2.164716
     23          1           0       -2.941093    1.295422   -1.278065
     24          1           0       -1.990618   -0.875842   -2.131774
     25          1           0        0.404246   -0.162963   -2.171862
     26          1           0        0.200196   -1.672802   -1.289547
     27          1           0        2.748119    1.537988   -1.296273
     28          1           0        3.983883    0.284840   -1.209030
     29          1           0        2.538842    0.017028   -2.180965
     30          1           0        2.228508   -2.203871   -0.885824
     31          1           0        3.694571   -1.791427   -0.000015
     32          1           0        2.228456   -2.203934    0.885679
     33          1           0        2.748064    1.537906    1.296402
     34          1           0        2.538864    0.016865    2.180974
     35          1           0        3.983880    0.284816    1.209042
     36          1           0        0.717353    2.050033   -0.880336
     37          1           0        0.717360    2.050049    0.880299
 ---------------------------------------------------------------------

 SCF Done:  E(RB3LYP) =  -621.979862996     A.U. after    1 cycles

 The electronic state is 1-A.
 Alpha  occ. eigenvalues --  -19.12827 -10.25886 -10.20287 -10.20177 -10.19236
 Alpha  occ. eigenvalues --  -10.18987 -10.18985 -10.18811 -10.18809 -10.18639
 Alpha  occ. eigenvalues --  -10.18638 -10.18133 -10.17408 -10.17407 -10.17341
 Alpha  occ. eigenvalues --   -1.02632  -0.87387  -0.81784  -0.77703  -0.76574
 Alpha  occ. eigenvalues --   -0.74690  -0.68885  -0.68533  -0.66962  -0.64286
 Alpha  occ. eigenvalues --   -0.59951  -0.59839  -0.57186  -0.53372  -0.50309
 Alpha  occ. eigenvalues --   -0.46106  -0.46030  -0.45393  -0.44417  -0.44251
 Alpha  occ. eigenvalues --   -0.43598  -0.43058  -0.42810  -0.41437  -0.41117
 Alpha  occ. eigenvalues --   -0.40105  -0.39361  -0.37624  -0.37115  -0.37104
 Alpha  occ. eigenvalues --   -0.36195  -0.35373  -0.34666  -0.34609  -0.33663
 Alpha  occ. eigenvalues --   -0.33178  -0.32286  -0.32046  -0.29373  -0.28707
 Alpha  occ. eigenvalues --   -0.28476  -0.22567
 Alpha virt. eigenvalues --   -0.00553   0.06393   0.09640   0.11104   0.11270
 Alpha virt. eigenvalues --    0.11731   0.12179   0.12278   0.13328   0.13879
 Alpha virt. eigenvalues --    0.14046   0.14908   0.16123   0.16502   0.17319

 Mulliken charges:
               1
     1  O   -0.462711
     2  C    0.455301
     3  C   -0.168306
     4  C   -0.307952
     5  C   -0.278495
     6  C   -0.096523
     7  C   -0.278495
     8  C   -0.168306
     9  C   -0.307953
    10  C    0.106204
    11  C    0.098744
    12  C   -0.460360
    13  C   -0.461260
    14  C   -0.460360
    15  C   -0.292676
    16  H    0.140216
    17  H    0.138897
    18  H    0.146338
    19  H    0.142741
    20  H    0.135613
    21  H    0.123705
    22  H    0.135613
    23  H    0.142741
    24  H    0.140216
    25  H    0.138896
    26  H    0.146339
    27  H    0.143961
    28  H    0.139836
    29  H    0.144192
    30  H    0.145639
    31  H    0.139705
    32  H    0.145638
    33  H    0.143960
    34  H    0.144193
    35  H    0.139836
    36  H    0.132439
    37  H    0.132438
 Sum of Mulliken charges =  -0.00000

 Dipole moment (field-independent basis, Debye):
    X=              2.3575    Y=              2.3201    Z=             -0.0000  Tot=              3.3077
 Quadrupole moment (field-independent basis, Debye-Ang):
   XX=           -101.5346   YY=            -97.3363   ZZ=            -90.9852
   XY=             -8.7242   XZ=              0.0001   YZ=              0.0001

  Exact polarizability: 153.751   1.807 129.991  -0.000  -0.000 127.312
 Approx polarizability: 205.854  11.115 200.998  -0.000  -0.000 193.368

 ******    1 imaginary frequencies (negative Signs) ******

                      1                      2                      3
                      A                      A                      A
 Frequencies --    -54.7632                87.3459               176.3199
 Red. masses --      2.2184                 8.5256                 2.8000
 Frc consts  --      0.0039                 0.0383                 0.0513
 IR Inten    --      0.1017                 3.2489                 0.0822

                      4                      5                      6
                      A                      A                      A
 Frequencies --    211.6071               226.8056               250.4701
 Red. masses --      3.0017                 1.1534                 1.1745
 Frc consts  --      0.0792                 0.0350                 0.0434
 IR Inten    --      0.1952                 0.0570                 0.0264

                      7                      8                      9
                      A                      A                      A
 Frequencies --    253.8883               261.6635               304.9754
 Red. masses --      1.1545                 2.0700                 2.3172
 Frc consts  --      0.0438                 0.0835                 0.1270
 IR Inten    --      0.0100                 0.5979                 0.0912

                     10                     11                     12
                      A                      A                      A
 Frequencies --    312.1684               339.6930               357.1875
 Red. masses --      3.5596                 2.0618                 2.1832
 Frc consts  --      0.2044                 0.1402                 0.1641
 IR Inten    --      0.2572                 0.0447                 0.2270

                     13                     14                     15
                      A                      A                      A
 Frequencies --    370.7258               389.6358               391.9374
 Red. masses --      4.4477                 2.0284                 3.7203
 Frc consts  --      0.3602                 0.1814                 0.3367
 IR Inten    --      0.7176                 0.0859                 0.0591

                     16                     17                     18
                      A                      A                      A
 Frequencies --    422.0365               435.7156               452.2954
 Red. masses --      1.9146                 1.8674                 2.9634
 Frc consts  --      0.2009                 0.2089                 0.3572
 IR Inten    --      0.2179                 0.1559                 4.0405

                     19                     20                     21
                      A                      A                      A
 Frequencies --    460.8066               481.6236               539.1651
 Red. masses --      2.5305                 3.3978                 2.4871
 Frc consts  --      0.3166                 0.4644                 0.4260
 IR Inten    --      0.1304                 7.1748                 0.1019

                     22                     23                     24
                      A                      A                      A
 Frequencies --    617.8986               636.6049               675.5094
 Red. masses --      5.4330                 3.6733                 4.3861
 Frc consts  --      1.2221                 0.8771                 1.1792
 IR Inten    --      0.2487                 1.4010                 0.2146

                     25                     26                     27
                      A                      A                      A
 Frequencies --    720.5720               785.2479               799.8635
 Red. masses --      4.0095                 3.7663                 3.2012
 Frc consts  --      1.2266                 1.3683                 1.2067
 IR Inten    --      1.7888                 0.5456                 0.1971

                     28                     29                     30
                      A                      A                      A
 Frequencies --    812.4031               862.1829               890.7018
 Red. masses --      2.6994                 2.6912                 2.7826
 Frc consts  --      1.0497                 1.1787                 1.3007
 IR Inten    --      1.1276                 0.7183                 4.6828

                     31                     32                     33
                      A                      A                      A
 Frequencies --    893.4065               900.9977               916.2657
 Red. masses --      1.6125                 1.6140                 2.4779
 Frc consts  --      0.7583                 0.7720                 1.2257
 IR Inten    --      2.7489                 0.0154                 4.3694

                     34                     35                     36
                      A                      A                      A
 Frequencies --    936.9830               938.2411               951.4311
 Red. masses --      1.9336                 1.7935                 2.0210
 Frc consts  --      1.0002                 0.9302                 1.0779
 IR Inten    --      0.4954                 1.1686                 0.2984

                     37                     38                     39
                      A                      A                      A
 Frequencies --    968.4307               970.3977               989.7162
 Red. masses --      1.1950                 2.2089                 2.3018
 Frc consts  --      0.6603                 1.2255                 1.3284
 IR Inten    --      0.0030                 0.7615                 2.0205

                     40                     41                     42
                      A                      A                      A
 Frequencies --   1012.2110              1044.3386              1051.0099
 Red. masses --      1.9577                 1.6968                 1.5697
 Frc consts  --      1.1818                 1.0904                 1.0216
 IR Inten    --      1.7562                 0.1907                 2.3169

                     43                     44                     45
                      A                      A                      A
 Frequencies --   1061.9629              1080.9504              1081.2881
 Red. masses --      1.8263                 4.3544                 2.0243
 Frc consts  --      1.2135                 2.9977                 1.3944
 IR Inten    --      0.0504                 2.8856                 5.5614

                     46                     47                     48
                      A                      A                      A
 Frequencies --   1084.3239              1103.2510              1129.8118
 Red. masses --      1.5948                 1.7301                 1.4569
 Frc consts  --      1.1048                 1.2407                 1.0957
 IR Inten    --     20.8917                 0.5070                 0.7276

                     49                     50                     51
                      A                      A                      A
 Frequencies --   1142.3509              1169.2581              1205.1443
 Red. masses --      1.3292                 1.1024                 1.2519
 Frc consts  --      1.0220                 0.8880                 1.0713
 IR Inten    --      0.0017                 0.3963                 0.4029

                     52                     53                     54
                      A                      A                      A
 Frequencies --   1224.5526              1245.3893              1258.4619
 Red. masses --      1.9300                 1.7124                 1.9984
 Frc consts  --      1.7052                 1.5649                 1.8647
 IR Inten    --      0.2093                 2.2242                14.1054

                     55                     56                     57
                      A                      A                      A
 Frequencies --   1259.1983              1277.1677              1289.1784
 Red. masses --      2.4088                 1.6398                 2.0659
 Frc consts  --      2.2503                 1.5759                 2.0229
 IR Inten    --     23.6402                 0.6463                 0.8969

                     58                     59                     60
                      A                      A                      A
 Frequencies --   1305.3721              1308.0145              1334.8950
 Red. masses --      1.6253                 1.4811                 1.5680
 Frc consts  --      1.6318                 1.4930                 1.6463
 IR Inten    --      0.2085                 0.0001                 5.1842

                     61                     62                     63
                      A                      A                      A
 Frequencies --   1338.8751              1355.4146              1363.6855
 Red. masses --      1.7293                 1.4401                 1.4175
 Frc consts  --      1.8264                 1.5588                 1.5531
 IR Inten    --      2.1486                 0.4895                 1.0287

                     64                     65                     66
                      A                      A                      A
 Frequencies --   1382.7648              1389.6026              1399.3387
 Red. masses --      1.6747                 1.4418                 1.5048
 Frc consts  --      1.8866                 1.6403                 1.7361
 IR Inten    --      4.6883                 0.9837                 1.1288

                     67                     68                     69
                      A                      A                      A
 Frequencies --   1401.2633              1413.7678              1433.3867
 Red. masses --      1.5482                 1.4094                 1.2265
 Frc consts  --      1.7911                 1.6598                 1.4847
 IR Inten    --      1.2011                 0.8290                 5.6691

                     70                     71                     72
                      A                      A                      A
 Frequencies --   1434.4132              1465.0642              1509.2702
 Red. masses --      1.2223                 1.2129                 1.0838
 Frc consts  --      1.4818                 1.5339                 1.4545
 IR Inten    --      6.6996                10.5720                 0.1788

                     73                     74                     75
                      A                      A                      A
 Frequencies --   1513.5885              1519.5992              1520.4383
 Red. masses --      1.0828                 1.0553                 1.0537
 Frc consts  --      1.4615                 1.4358                 1.4352
 IR Inten    --      1.8548                 0.6351                 0.3820

                     76                     77                     78
                      A                      A                      A
 Frequencies --   1521.1824              1524.3263              1524.9335
 Red. masses --      1.0536                 1.0781                 1.0875
 Frc consts  --      1.4365                 1.4760                 1.4900
 IR Inten    --      0.9517                 8.8985                 3.7490

                     79                     80                     81
                      A                      A                      A
 Frequencies --   1540.8050              1544.8569              1545.1875
 Red. masses --      1.0847                 1.0527                 1.0522
 Frc consts  --      1.5172                 1.4803                 1.4801
 IR Inten    --      2.5687                 3.0468                 2.8439

                     82                     83                     84
                      A                      A                      A
 Frequencies --   1554.1200              1820.3773              3029.9598
 Red. masses --      1.0590                11.1967                 1.0670
 Frc consts  --      1.5071                21.8607                 5.7715
 IR Inten    --     14.1807               230.8424                 4.5040

                     85                     86                     87
                      A                      A                      A
 Frequencies --   3031.5496              3041.2796              3047.3460
 Red. masses --      1.0596                 1.0661                 1.0496
 Frc consts  --      5.7376                 5.8100                 5.7426
 IR Inten    --     37.4148                27.5419                 0.4051

                     88                     89                     90
                      A                      A                      A
 Frequencies --   3049.8104              3051.2362              3052.4163
 Red. masses --      1.0496                 1.0481                 1.0474
 Frc consts  --      5.7520                 5.7494                 5.7499
 IR Inten    --     10.2948                12.7935                30.7642

                     91                     92                     93
                      A                      A                      A
 Frequencies --   3054.5202              3064.6328              3069.0890
 Red. masses --      1.0621                 1.0485                 1.1052
 Frc consts  --      5.8383                 5.8020                 6.1336
 IR Inten    --     75.2381                55.9940                 6.9039

                     94                     95                     96
                      A                      A                      A
 Frequencies --   3073.3747              3084.7501              3086.2398
 Red. masses --      1.1036                 1.0874                 1.1025
 Frc consts  --      6.1417                 6.0963                 6.1873
 IR Inten    --     67.9112                37.3290                34.8891

                     97                     98                     99
                      A                      A                      A
 Frequencies --   3087.0327              3091.2191              3093.5602
 Red. masses --      1.0861                 1.1039                 1.1030
 Frc consts  --      6.0985                 6.2149                 6.2192
 IR Inten    --     13.2599                21.8883                38.3955

                    100                    101                    102
                      A                      A                      A
 Frequencies --   3110.7548              3111.4903              3117.4085
 Red. masses --      1.0991                 1.0988                 1.0987
 Frc consts  --      6.2666                 6.2675                 6.2911
 IR Inten    --     26.5205                26.8627                79.9605

                    103                    104                    105
                      A                      A                      A
 Frequencies --   3127.5858              3130.0965              3130.6948
 Red. masses --      1.1026                 1.1008                 1.1009
 Frc consts  --      6.3548                 6.3544                 6.3573
 IR Inten    --      1.1599                45.0261                39.5101

 - Thermochemistry -
 -------------------
 Temperature   298.150 Kelvin.  Pressure   1.00000 Atm.
 Atom     1 has atomic number  8 and mass  15.99491

 Molecular mass:   206.16707 amu.
 Principal axes and moments of inertia in atomic units:
                           1         2         3
     Eigenvalues --  1688.250463654.189403879.09145
           X            0.99959  -0.02879   0.00000
           Y            0.02879   0.99959   0.00001
           Z           -0.00000  -0.00001   1.00000
 This molecule is an asymmetric top.
 Rotational symmetry number  1.
 Warning -- assumption of classical behavior for rotation
           may cause significant error
 Rotational temperatures (Kelvin)      0.05130     0.02370     0.02233
 Rotational constants (GHZ):           1.06900     0.49388     0.46525
    1 imaginary frequencies ignored.
 Zero-point vibrational energy     887709.0 (Joules/Mol)
                                  212.16755 (Kcal/Mol)
 Warning -- explicit consideration of  21 degrees of freedom as
           vibrations may cause significant error
 Vibrational temperatures:    125.67   253.68   304.46   326.32   360.37
          (Kelvin)            365.29   376.48   438.79   449.14   488.74
                              513.91   533.39   560.60   563.91   607.22
                              626.90   650.75   663.00   692.95   775.74
                              889.02   915.93   971.91  1036.74  1129.80
                             1150.83  1168.87  1240.49  1281.52  1285.41
                             1296.33  1318.30  1348.11  1349.92  1368.90
                             1393.36  1396.19  1423.98  1456.35  1502.57
                             1512.17  1527.93  1555.25  1555.73  1560.10
                             1587.33  1625.55  1643.59  1682.30  1733.93
                             1761.86  1791.84  1810.65  1811.71  1837.56
                             1854.84  1878.14  1881.94  1920.62  1926.34
                             1950.14  1962.04  1989.49  1999.33  2013.34
                             2016.11  2034.10  2062.32  2063.80  2107.90
                             2171.50  2177.72  2186.36  2187.57  2188.64
                             2193.17  2194.04  2216.87  2222.70  2223.18
                             2236.03  2619.12  4359.44  4361.72  4375.72
                             4384.45  4388.00  4390.05  4391.75  4394.77
                             4409.32  4415.73  4421.90  4438.27  4440.41
                             4441.55  4447.57  4450.94  4475.68  4476.74
                             4485.26  4499.90  4503.51  4504.37

 Zero-point correction=                           0.338111 (Hartree/Particle)
 Thermal correction to Energy=                    0.350683
 Thermal correction to Enthalpy=                  0.351627
 Thermal correction to Gibbs Free Energy=         0.301246
 Sum of electronic and zero-point Energies=           -621.641752
 Sum of electronic and thermal Energies=              -621.629180
 Sum of electronic and thermal Enthalpies=            -621.628236
 Sum of electronic and thermal Free Energies=         -621.678617

                     E (Thermal)             CV                S
                      KCal/Mol        Cal/Mol-Kelvin    Cal/Mol-Kelvin
 Total                  220.057             55.112            106.037
 Electronic               0.000              0.000              0.000
 Translational            0.889              2.981             41.875
 Rotational               0.889              2.981             31.548
 Vibrational            218.279             49.151             32.614
 Vibration     1          0.601              1.958              3.719
 Vibration     2          0.628              1.872              2.367
 Vibration     3          0.643              1.823              2.030
 Vibration     4          0.650              1.800              1.904
 Vibration     5          0.663              1.762              1.727
 Vibration     6          0.665              1.756              1.703
 Vibration     7          0.669              1.743              1.651
 Vibration     8          0.696              1.664              1.389
 Vibration     9          0.701              1.650              1.351
 Vibration    10          0.720              1.596              1.214
 Vibration    11          0.732              1.560              1.134
 Vibration    12          0.743              1.532              1.077
 Vibration    13          0.758              1.492              1.002
 Vibration    14          0.759              1.487              0.993
 Vibration    15          0.784              1.422              0.885
 Vibration    16          0.796              1.392              0.840
 Vibration    17          0.811              1.356              0.789
 Vibration    18          0.819              1.337              0.764
 Vibration    19          0.838              1.291              0.706
 Vibration    20          0.894              1.163              0.567
 Vibration    21          0.978              0.994              0.420

 Optimization completed.
    -- Stationary point found.
 Normal termination of Gaussian 16 at Sat Feb 24 18:46:01 2024.
