 Gaussian 16, Revision A.03,
 Gaussian 16:  EM64M-G16RevA.03 25-Dec-2016

 ---------------------
 # freq b3lyp/6-31g(d)
 ---------------------

 ---------
 good luck
 ---------
 Symbolic Z-matrix:
 Charge =  0 Multiplicity = 1

                         Standard orientation:
 ---------------------------------------------------------------------
 Center     Atomic      Atomic             Coordinates (Angstroms)
 Number     Number       Type             X           Y           Z
 ---------------------------------------------------------------------
      1          8           0       -1.041649    2.624778   -0.218817
      2          6           0       -1.063835    1.443551    0.076264
      3          6           0       -2.367272    0.662985    0.192563
      4          6           0       -2.320288   -0.632527   -0.640669
      5          6           0       -1.081071   -1.475331   -0.306118
      6          8           0       -1.107928   -1.917256    1.056466
      7          6           0        0.209796   -0.666044   -0.503835
      8          6           0        1.477899   -1.491329   -0.223131
      9          6           0        2.756138   -0.665308   -0.428640
     10          6           0        2.739078    0.615880    0.418216
     11          6           0        1.483791    1.455017    0.142328
     12          6           0        0.203138    0.636151    0.348473
     13          1           0       -3.194404    1.312303   -0.107640
     14          1           0       -2.505666    0.394827    1.248677
     15          1           0       -2.305050   -0.389507   -1.711615
     16          1           0       -3.232371   -1.221863   -0.470662
     17          1           0       -1.047635   -2.349660   -0.977327
     18          1           0       -1.892664   -2.475207    1.171324
     19          1           0        0.227403   -0.368408   -1.564816
     20          1           0        1.434333   -1.861955    0.808504
     21          1           0        1.488701   -2.375962   -0.874769
     22          1           0        2.848568   -0.394719   -1.491134
     23          1           0        3.636904   -1.272711   -0.184450
     24          1           0        3.639050    1.212421    0.222410
     25          1           0        2.770355    0.344564    1.483935
     26          1           0        1.458514    2.343056    0.783168
     27          1           0        1.504567    1.829421   -0.890245
     28          1           0        0.141773    0.314969    1.400746
 ---------------------------------------------------------------------

 SCF Done:  E(RB3LYP) =  -541.154203843     A.U. after   14 cycles

 The electronic state is 1-A.
 Alpha  occ. eigenvalues --  -19.15325 -19.13017 -10.26352 -10.24239 -10.19681
 Alpha  occ. eigenvalues --  -10.19458 -10.18830 -10.18713 -10.17736 -10.17707
 Alpha  occ. eigenvalues --  -10.17532 -10.17261  -1.02912  -1.02532  -0.84103
 Alpha  occ. eigenvalues --   -0.79799  -0.74936  -0.74133  -0.69974  -0.62446
 Alpha  occ. eigenvalues --   -0.61694  -0.57909  -0.55518  -0.53486  -0.49923
 Alpha  occ. eigenvalues --   -0.47316  -0.46389  -0.46087  -0.44284  -0.43092
 Alpha  occ. eigenvalues --   -0.42045  -0.40985  -0.40014  -0.38970  -0.37417
 Alpha  occ. eigenvalues --   -0.36440  -0.35539  -0.34877  -0.34174  -0.33902
 Alpha  occ. eigenvalues --   -0.32883  -0.31532  -0.30480  -0.29241  -0.27380
 Alpha  occ. eigenvalues --   -0.23116
 Alpha virt. eigenvalues --   -0.00799   0.05850   0.09377   0.09923   0.12491
 Alpha virt. eigenvalues --    0.12963   0.13523   0.14440   0.14945   0.15949
 Alpha virt. eigenvalues --    0.16964   0.17531   0.17977   0.18534   0.19086

 Mulliken charges:
               1
     1  O   -0.454840
     2  C    0.441519
     3  C   -0.334497
     4  C   -0.299131
     5  C    0.127771
     6  O   -0.629384
     7  C   -0.104036
     8  C   -0.262743
     9  C   -0.261545
    10  C   -0.264800
    11  C   -0.254587
    12  C   -0.180847
    13  H    0.159865
    14  H    0.163305
    15  H    0.146742
    16  H    0.130799
    17  H    0.115105
    18  H    0.392616
    19  H    0.124879
    20  H    0.154023
    21  H    0.124487
    22  H    0.127102
    23  H    0.131466
    24  H    0.132437
    25  H    0.128868
    26  H    0.146348
    27  H    0.137636
    28  H    0.161441
 Sum of Mulliken charges =  -0.00000

 Dipole moment (field-independent basis, Debye):
    X=             -0.9844    Y=             -3.3341    Z=             -0.1951  Tot=              3.4818
 Quadrupole moment (field-independent basis, Debye-Ang):
   XX=            -67.3441   YY=            -80.1762   ZZ=            -72.2289
   XY=              6.9678   XZ=             -1.1419   YZ=              2.0930

  Exact polarizability: 116.589   1.594 108.420   0.206  -0.089  86.543
 Approx polarizability: 142.471   1.972 158.836  -0.267  -6.748 140.901

                      1                      2                      3
                      A                      A                      A
 Frequencies --     76.0832               102.5590               143.1407
 Red. masses --      4.7880                 3.2635                 2.9295
 Frc consts  --      0.0163                 0.0202                 0.0354
 IR Inten    --      2.7811                 0.9598                 0.4145

                      4                      5                      6
                      A                      A                      A
 Frequencies --    192.3697               244.7512               274.7275
 Red. masses --      3.5811                 3.4839                 3.0562
 Frc consts  --      0.0781                 0.1230                 0.1359
 IR Inten    --      2.1111                 2.0207                12.9702

                      7                      8                      9
                      A                      A                      A
 Frequencies --    288.7191               307.5159               329.9155
 Red. masses --      1.4586                 1.4795                 2.8040
 Frc consts  --      0.0716                 0.0824                 0.1798
 IR Inten    --     40.0682                65.4488                 6.8089

                     10                     11                     12
                      A                      A                      A
 Frequencies --    364.5210               384.3136               441.0273
 Red. masses --      2.3278                 3.5483                 2.7488
 Frc consts  --      0.1822                 0.3088                 0.3150
 IR Inten    --      0.6178                 0.3387                 0.8049

                     13                     14                     15
                      A                      A                      A
 Frequencies --    457.9018               494.9417               553.3168
 Red. masses --      2.8385                 2.0148                 2.9230
 Frc consts  --      0.3507                 0.2908                 0.5273
 IR Inten    --      2.2718                 1.9113                 5.5767

                     16                     17                     18
                      A                      A                      A
 Frequencies --    576.3817               626.8436               731.6886
 Red. masses --      3.1013                 4.9225                 2.6415
 Frc consts  --      0.6070                 1.1396                 0.8332
 IR Inten    --      7.8815                 7.5614                 5.9426

                     19                     20                     21
                      A                      A                      A
 Frequencies --    789.6509               821.4170               843.5478
 Red. masses --      1.9827                 2.0714                 3.0731
 Frc consts  --      0.7284                 0.8234                 1.2884
 IR Inten    --      0.1011                 2.8269                 8.8845

                     22                     23                     24
                      A                      A                      A
 Frequencies --    858.9089               864.3937               890.4517
 Red. masses --      2.3279                 2.0511                 2.2383
 Frc consts  --      1.0118                 0.9029                 1.0457
 IR Inten    --      1.7898                 2.7499                 3.2671

                     25                     26                     27
                      A                      A                      A
 Frequencies --    910.8704               969.1969               972.6915
 Red. masses --      1.5585                 2.2029                 2.1972
 Frc consts  --      0.7619                 1.2192                 1.2248
 IR Inten    --      3.5719                14.6601                 4.8121

                     28                     29                     30
                      A                      A                      A
 Frequencies --    990.4926              1025.7274              1057.2767
 Red. masses --      1.8966                 2.2074                 1.6004
 Frc consts  --      1.0963                 1.3683                 1.0540
 IR Inten    --      1.6270                 2.7233                 2.4403

                     31                     32                     33
                      A                      A                      A
 Frequencies --   1067.3476              1071.0373              1085.9400
 Red. masses --      1.9734                 1.4286                 1.7598
 Frc consts  --      1.3246                 0.9656                 1.2227
 IR Inten    --      2.8374                 3.4200                29.9974

                     34                     35                     36
                      A                      A                      A
 Frequencies --   1101.6071              1149.1376              1154.2659
 Red. masses --      2.5387                 2.4429                 1.5709
 Frc consts  --      1.8152                 1.9006                 1.2332
 IR Inten    --      1.2468                47.4247                14.4587

                     37                     38                     39
                      A                      A                      A
 Frequencies --   1158.2332              1200.1743              1220.4581
 Red. masses --      2.2458                 1.3961                 1.3710
 Frc consts  --      1.7751                 1.1848                 1.2032
 IR Inten    --      1.0742                18.9822                42.0840

                     40                     41                     42
                      A                      A                      A
 Frequencies --   1246.6379              1259.1911              1278.1733
 Red. masses --      1.3903                 1.3582                 1.4583
 Frc consts  --      1.2730                 1.2688                 1.4037
 IR Inten    --      6.5798                 0.3129                 9.5414

                     43                     44                     45
                      A                      A                      A
 Frequencies --   1291.2977              1322.5101              1337.0026
 Red. masses --      1.2930                 1.2638                 1.2641
 Frc consts  --      1.2703                 1.3024                 1.3314
 IR Inten    --     10.8263                 2.6316                 6.6375

                     46                     47                     48
                      A                      A                      A
 Frequencies --   1346.5790              1349.5153              1377.4087
 Red. masses --      1.3119                 1.3495                 1.4940
 Frc consts  --      1.4015                 1.4481                 1.6701
 IR Inten    --      1.8044                 7.6742                 7.7191

                     49                     50                     51
                      A                      A                      A
 Frequencies --   1382.7220              1390.5776              1393.0181
 Red. masses --      1.3945                 1.4511                 1.4268
 Frc consts  --      1.5709                 1.6532                 1.6313
 IR Inten    --      4.0838                 1.1606                 2.5421

                     52                     53                     54
                      A                      A                      A
 Frequencies --   1401.8411              1406.9853              1420.2194
 Red. masses --      1.4368                 1.5653                 1.6100
 Frc consts  --      1.6636                 1.8256                 1.9133
 IR Inten    --      3.1124                21.8149                 6.6568

                     55                     56                     57
                      A                      A                      A
 Frequencies --   1444.2468              1495.6828              1513.0630
 Red. masses --      1.5618                 1.0931                 1.0904
 Frc consts  --      1.9194                 1.4407                 1.4708
 IR Inten    --     10.2165                 7.2836                 2.7308

                     58                     59                     60
                      A                      A                      A
 Frequencies --   1516.7158              1520.1357              1520.7650
 Red. masses --      1.0919                 1.0834                 1.0935
 Frc consts  --      1.4799                 1.4750                 1.4901
 IR Inten    --      2.2102                 7.6761                 3.7618

                     61                     62                     63
                      A                      A                      A
 Frequencies --   1532.8816              1807.2411              2982.8955
 Red. masses --      1.0988                11.5012                 1.0835
 Frc consts  --      1.5212                22.1322                 5.6800
 IR Inten    --      0.0775               169.4482                45.5521

                     64                     65                     66
                      A                      A                      A
 Frequencies --   2999.2024              3013.8270              3019.2689
 Red. masses --      1.0811                 1.0817                 1.0696
 Frc consts  --      5.7294                 5.7887                 5.7447
 IR Inten    --     11.6563                10.4090                18.7321

                     67                     68                     69
                      A                      A                      A
 Frequencies --   3024.5248              3033.1188              3036.7570
 Red. masses --      1.0634                 1.0641                 1.0642
 Frc consts  --      5.7316                 5.7681                 5.7824
 IR Inten    --     31.0652                42.4909                60.7549

                     70                     71                     72
                      A                      A                      A
 Frequencies --   3045.3092              3049.2670              3069.4050
 Red. masses --      1.0670                 1.0681                 1.0956
 Frc consts  --      5.8303                 5.8514                 6.0814
 IR Inten    --     17.0428                 3.5630                55.3462

                     73                     74                     75
                      A                      A                      A
 Frequencies --   3071.8098              3073.6876              3087.3390
 Red. masses --      1.0980                 1.0970                 1.0999
 Frc consts  --      6.1046                 6.1060                 6.1769
 IR Inten    --     41.1738                51.3504                46.1449

                     76                     77                     78
                      A                      A                      A
 Frequencies --   3096.8697              3124.0946              3743.8191
 Red. masses --      1.0987                 1.0988                 1.0663
 Frc consts  --      6.2083                 6.3183                 8.8059
 IR Inten    --     38.6399                19.3361                13.4921

 - Thermochemistry -
 -------------------
 Temperature   298.150 Kelvin.  Pressure   1.00000 Atm.
 Atom     1 has atomic number  8 and mass  15.99491

 Molecular mass:   168.11503 amu.
 Principal axes and moments of inertia in atomic units:
                           1         2         3
     Eigenvalues --  1402.512602048.555213067.57876
           X            0.99942   0.03394   0.00224
           Y           -0.03397   0.99930   0.01538
           Z           -0.00171  -0.01545   0.99988
 This molecule is an asymmetric top.
 Rotational symmetry number  1.
 Warning -- assumption of classical behavior for rotation
           may cause significant error
 Rotational temperatures (Kelvin)      0.06176     0.04228     0.02824
 Rotational constants (GHZ):           1.28679     0.88098     0.58833
 Zero-point vibrational energy     656864.4 (Joules/Mol)
                                  156.99436 (Kcal/Mol)
 Warning -- explicit consideration of  16 degrees of freedom as
           vibrations may cause significant error
 Vibrational temperatures:    109.47   147.56   205.95   276.78   352.14
          (Kelvin)            395.27   415.40   442.45   474.67   524.46
                              552.94   634.54   658.82   712.11   796.10
                              829.28   901.89  1052.74  1136.13  1181.84
                             1213.68  1235.78  1243.67  1281.16  1310.54
                             1394.46  1399.49  1425.10  1475.79  1521.19
                             1535.68  1540.98  1562.43  1584.97  1653.35
                             1660.73  1666.44  1726.78  1755.97  1793.63
                             1811.70  1839.01  1857.89  1902.80  1923.65
                             1937.43  1941.65  1981.78  1989.43  2000.73
                             2004.24  2016.94  2024.34  2043.38  2077.95
                             2151.95  2176.96  2182.22  2187.14  2188.04
                             2205.47  2600.22  4291.72  4315.18  4336.22
                             4344.05  4351.62  4363.98  4369.22  4381.52
                             4387.22  4416.19  4419.65  4422.35  4441.99
                             4455.70  4494.88  5386.52

 Zero-point correction=                           0.250186 (Hartree/Particle)
 Thermal correction to Energy=                    0.260983
 Thermal correction to Enthalpy=                  0.261927
 Thermal correction to Gibbs Free Energy=         0.214265
 Sum of electronic and zero-point Energies=           -540.904017
 Sum of electronic and thermal Energies=              -540.893221
 Sum of electronic and thermal Enthalpies=            -540.892277
 Sum of electronic and thermal Free Energies=         -540.939939

                     E (Thermal)             CV                S
                      KCal/Mol        Cal/Mol-Kelvin    Cal/Mol-Kelvin
 Total                  163.769             43.705            100.312
 Electronic               0.000              0.000              0.000
 Translational            0.889              2.981             41.266
 Rotational               0.889              2.981             30.556
 Vibrational            161.992             37.743             28.490
 Vibration     1          0.599              1.965              3.989
 Vibration     2          0.605              1.947              3.405
 Vibration     3          0.616              1.910              2.761
 Vibration     4          0.634              1.850              2.205
 Vibration     5          0.660              1.771              1.768
 Vibration     6          0.677              1.720              1.566
 Vibration     7          0.685              1.695              1.481
 Vibration     8          0.697              1.659              1.376
 Vibration     9          0.713              1.616              1.260
 Vibration    10          0.738              1.545              1.103
 Vibration    11          0.753              1.504              1.022
 Vibration    12          0.801              1.381              0.823
 Vibration    13          0.816              1.343              0.772
 Vibration    14          0.851              1.261              0.671
 Vibration    15          0.909              1.132              0.537
 Vibration    16          0.933              1.082              0.492

 Normal termination of Gaussian 16 at Sat Feb 24 04:55:33 2024.
