 Gaussian 16, Revision A.03,
 Gaussian 16:  EM64M-G16RevA.03 25-Dec-2016

 ---------------------
 # freq b3lyp/6-31g(d)
 ---------------------

 ---------
 good luck
 ---------
 Symbolic Z-matrix:
 Charge =  0 Multiplicity = 1

                         Standard orientation:
 ---------------------------------------------------------------------
 Center     Atomic      Atomic             Coordinates (Angstroms)
 Number     Number       Type             X           Y           Z
 ---------------------------------------------------------------------
      1          8           0        0.104051    2.351585   -0.110589
      2          6           0       -0.380471    1.233534   -0.110614
      3          6           0       -1.802356    0.953994    0.359153
      4          6           0       -1.725131   -0.055862    1.530684
      5          6           0       -1.108658   -1.394660    1.034367
      6          6           0       -0.617419   -1.231060   -0.419949
      7          6           0       -1.855371   -0.960949   -1.305388
      8          6           0       -2.590770    0.319385   -0.810421
      9          6           0        0.359807   -0.030665   -0.588628
     10          6           0        1.835532   -0.159854   -0.042906
     11          6           0        2.725831    0.835985   -0.820617
     12          6           0        1.960577    0.158337    1.462584
     13          6           0        2.369869   -1.582870   -0.300618
     14          1           0       -2.252927    1.898224    0.678686
     15          1           0       -2.734806   -0.210542    1.929727
     16          1           0       -1.130183    0.372409    2.345522
     17          1           0       -1.857807   -2.195676    1.060662
     18          1           0       -0.295546   -1.718103    1.690840
     19          1           0       -0.135718   -2.153880   -0.757062
     20          1           0       -2.524108   -1.829224   -1.269960
     21          1           0       -1.545577   -0.848173   -2.351503
     22          1           0       -3.602297    0.081050   -0.459714
     23          1           0       -2.705892    1.046655   -1.621825
     24          1           0        0.475725    0.106749   -1.675832
     25          1           0        3.760185    0.785052   -0.458341
     26          1           0        2.736862    0.597522   -1.892135
     27          1           0        2.362570    1.859164   -0.703146
     28          1           0        3.009714    0.075618    1.771165
     29          1           0        1.632137    1.178172    1.684374
     30          1           0        1.385880   -0.534214    2.086181
     31          1           0        3.435976   -1.630180   -0.047997
     32          1           0        2.268156   -1.866948   -1.355547
     33          1           0        1.856612   -2.338246    0.304739
 ---------------------------------------------------------------------

 SCF Done:  E(RB3LYP) =  -544.551324598     A.U. after   14 cycles

 The electronic state is 1-A.
 Alpha  occ. eigenvalues --  -19.13145 -10.26419 -10.20146 -10.19176 -10.19135
 Alpha  occ. eigenvalues --  -10.19063 -10.19033 -10.19020 -10.18620 -10.18548
 Alpha  occ. eigenvalues --  -10.17285 -10.16814 -10.16076  -1.03009  -0.85998
 Alpha  occ. eigenvalues --   -0.81189  -0.75298  -0.74345  -0.71323  -0.68183
 Alpha  occ. eigenvalues --   -0.67513  -0.61495  -0.61173  -0.56829  -0.53975
 Alpha  occ. eigenvalues --   -0.50280  -0.48659  -0.47442  -0.46440  -0.43859
 Alpha  occ. eigenvalues --   -0.43150  -0.42796  -0.40380  -0.40151  -0.39746
 Alpha  occ. eigenvalues --   -0.39042  -0.38626  -0.37756  -0.37385  -0.36573
 Alpha  occ. eigenvalues --   -0.35954  -0.35642  -0.34635  -0.33085  -0.32525
 Alpha  occ. eigenvalues --   -0.31533  -0.30907  -0.29823  -0.29065  -0.22716
 Alpha virt. eigenvalues --   -0.01213   0.06237   0.09031   0.10934   0.11225
 Alpha virt. eigenvalues --    0.12250   0.13413   0.14039   0.14802   0.15246
 Alpha virt. eigenvalues --    0.15338   0.16576   0.17228   0.18074   0.18349

 Mulliken charges:
               1
     1  O   -0.466094
     2  C    0.452477
     3  C   -0.164005
     4  C   -0.288950
     5  C   -0.276035
     6  C   -0.114540
     7  C   -0.279497
     8  C   -0.283454
     9  C   -0.177293
    10  C    0.111937
    11  C   -0.459825
    12  C   -0.470778
    13  C   -0.451701
    14  H    0.139025
    15  H    0.143759
    16  H    0.151010
    17  H    0.134986
    18  H    0.146349
    19  H    0.127372
    20  H    0.136717
    21  H    0.137177
    22  H    0.142588
    23  H    0.150549
    24  H    0.149763
    25  H    0.131146
    26  H    0.128665
    27  H    0.184177
    28  H    0.139467
    29  H    0.164628
    30  H    0.138493
    31  H    0.141910
    32  H    0.137829
    33  H    0.142146
 Sum of Mulliken charges =  -0.00000

 Dipole moment (field-independent basis, Debye):
    X=             -1.1587    Y=             -2.5714    Z=              0.0122  Tot=              2.8204
 Quadrupole moment (field-independent basis, Debye-Ang):
   XX=            -78.4566   YY=            -89.0437   ZZ=            -79.8772
   XY=             -1.0963   XZ=              0.0825   YZ=              0.3224

  Exact polarizability: 134.173   2.072 114.818  -0.920   0.616 108.484
 Approx polarizability: 174.729   7.096 177.263  -1.373   0.108 161.464

                      1                      2                      3
                      A                      A                      A
 Frequencies --     50.3299                78.1833               152.3935
 Red. masses --      3.5507                 2.9489                 2.5095
 Frc consts  --      0.0053                 0.0106                 0.0343
 IR Inten    --      1.4285                 0.5555                 1.2159

                      4                      5                      6
                      A                      A                      A
 Frequencies --    189.6556               198.7895               231.8503
 Red. masses --      3.0647                 2.8087                 1.1255
 Frc consts  --      0.0649                 0.0654                 0.0356
 IR Inten    --      2.3660                 1.0264                 0.1629

                      7                      8                      9
                      A                      A                      A
 Frequencies --    264.2955               273.6953               286.6692
 Red. masses --      2.0993                 1.2295                 2.0651
 Frc consts  --      0.0864                 0.0543                 0.1000
 IR Inten    --      0.0936                 0.0227                 0.3709

                     10                     11                     12
                      A                      A                      A
 Frequencies --    297.1038               317.7002               331.1117
 Red. masses --      1.8439                 1.6377                 1.5921
 Frc consts  --      0.0959                 0.0974                 0.1028
 IR Inten    --      0.8165                 0.4765                 0.7285

                     13                     14                     15
                      A                      A                      A
 Frequencies --    366.3026               391.9153               418.1777
 Red. masses --      2.5636                 2.4704                 2.7088
 Frc consts  --      0.2027                 0.2236                 0.2791
 IR Inten    --      0.5754                 0.0819                 0.3903

                     16                     17                     18
                      A                      A                      A
 Frequencies --    473.4202               497.8409               516.5422
 Red. masses --      3.0404                 3.9148                 3.6622
 Frc consts  --      0.4015                 0.5717                 0.5757
 IR Inten    --      4.3028                 1.4007                 6.6758

                     19                     20                     21
                      A                      A                      A
 Frequencies --    549.0794               607.6230               670.6648
 Red. masses --      3.3041                 4.7835                 4.9005
 Frc consts  --      0.5869                 1.0406                 1.2987
 IR Inten    --      0.5012                 0.6718                 4.1249

                     22                     23                     24
                      A                      A                      A
 Frequencies --    768.9146               810.6029               812.8568
 Red. masses --      3.9825                 2.8940                 1.4066
 Frc consts  --      1.3873                 1.1204                 0.5476
 IR Inten    --      0.2101                 0.8738                 3.3994

                     25                     26                     27
                      A                      A                      A
 Frequencies --    823.2030               849.2429               872.8748
 Red. masses --      1.8630                 2.4206                 1.9683
 Frc consts  --      0.7438                 1.0286                 0.8836
 IR Inten    --      3.7740                 0.9460                 9.6963

                     28                     29                     30
                      A                      A                      A
 Frequencies --    879.4951               887.9582               939.4235
 Red. masses --      2.6335                 2.5518                 1.7777
 Frc consts  --      1.2002                 1.1854                 0.9243
 IR Inten    --      0.9019                 2.2248                 0.4819

                     31                     32                     33
                      A                      A                      A
 Frequencies --    947.2952               961.9948               975.0770
 Red. masses --      1.7193                 1.8355                 1.2082
 Frc consts  --      0.9090                 1.0008                 0.6768
 IR Inten    --      0.9057                 0.3286                 0.3596

                     34                     35                     36
                      A                      A                      A
 Frequencies --    999.9432              1016.3112              1043.5847
 Red. masses --      3.3312                 2.4883                 1.5563
 Frc consts  --      1.9624                 1.5143                 0.9986
 IR Inten    --      1.4232                 0.7509                 0.5011

                     37                     38                     39
                      A                      A                      A
 Frequencies --   1049.7744              1067.9595              1077.7925
 Red. masses --      2.1941                 1.8289                 1.8094
 Frc consts  --      1.4246                 1.2290                 1.2384
 IR Inten    --      7.3005                 0.9653                 0.1895

                     40                     41                     42
                      A                      A                      A
 Frequencies --   1085.0523              1098.8889              1142.2490
 Red. masses --      2.0113                 1.7515                 1.4325
 Frc consts  --      1.3952                 1.2461                 1.1012
 IR Inten    --     17.6449                11.2887                15.8194

                     43                     44                     45
                      A                      A                      A
 Frequencies --   1167.6703              1206.2184              1207.4185
 Red. masses --      1.0645                 1.6191                 1.4926
 Frc consts  --      0.8551                 1.3880                 1.2820
 IR Inten    --      0.2278                 7.4632                 2.3755

                     46                     47                     48
                      A                      A                      A
 Frequencies --   1251.9213              1253.1718              1264.2049
 Red. masses --      1.7588                 1.6923                 2.1946
 Frc consts  --      1.6241                 1.5659                 2.0665
 IR Inten    --      7.0171                 7.1076                20.2752

                     49                     50                     51
                      A                      A                      A
 Frequencies --   1266.5035              1274.1419              1305.3057
 Red. masses --      1.5347                 1.1963                 1.5739
 Frc consts  --      1.4504                 1.1443                 1.5800
 IR Inten    --      0.5079                 1.1831                 2.3029

                     52                     53                     54
                      A                      A                      A
 Frequencies --   1317.4393              1337.8544              1352.5032
 Red. masses --      1.6889                 1.5456                 1.3405
 Frc consts  --      1.7271                 1.6299                 1.4447
 IR Inten    --      2.1106                 2.5738                 0.2707

                     55                     56                     57
                      A                      A                      A
 Frequencies --   1359.2053              1370.6714              1384.5334
 Red. masses --      1.5047                 1.5015                 1.5040
 Frc consts  --      1.6379                 1.6621                 1.6986
 IR Inten    --      4.6640                 3.7820                 6.8359

                     58                     59                     60
                      A                      A                      A
 Frequencies --   1394.4391              1401.9106              1425.2090
 Red. masses --      1.4563                 1.3906                 1.2242
 Frc consts  --      1.6684                 1.6102                 1.4651
 IR Inten    --      1.3442                 0.4734                 7.9906

                     61                     62                     63
                      A                      A                      A
 Frequencies --   1428.4264              1457.5005              1511.4773
 Red. masses --      1.2322                 1.2221                 1.0510
 Frc consts  --      1.4813                 1.5296                 1.4146
 IR Inten    --      7.6071                11.7414                 2.0450

                     64                     65                     66
                      A                      A                      A
 Frequencies --   1514.3440              1519.5753              1524.2145
 Red. masses --      1.0695                 1.0515                 1.0692
 Frc consts  --      1.4450                 1.4306                 1.4635
 IR Inten    --      0.3741                 0.0570                 2.0373

                     67                     68                     69
                      A                      A                      A
 Frequencies --   1528.1761              1532.1190              1537.7085
 Red. masses --      1.0530                 1.0777                 1.0653
 Frc consts  --      1.4489                 1.4905                 1.4842
 IR Inten    --      0.0580                 8.2605                 1.6186

                     70                     71                     72
                      A                      A                      A
 Frequencies --   1541.6718              1552.4648              1555.9684
 Red. masses --      1.0649                 1.0823                 1.0540
 Frc consts  --      1.4912                 1.5369                 1.5035
 IR Inten    --      5.5046                 9.5850                11.4940

                     73                     74                     75
                      A                      A                      A
 Frequencies --   1801.7633              2997.3054              3036.3885
 Red. masses --     11.6424                 1.0817                 1.0379
 Frc consts  --     22.2684                 5.7256                 5.6377
 IR Inten    --    161.9951                11.6836                20.4878

                     76                     77                     78
                      A                      A                      A
 Frequencies --   3041.0393              3043.7535              3047.1995
 Red. masses --      1.0377                 1.0603                 1.0647
 Frc consts  --      5.6541                 5.7877                 5.8248
 IR Inten    --     41.1958                19.1722                19.9328

                     79                     80                     81
                      A                      A                      A
 Frequencies --   3054.8154              3055.1671              3057.8817
 Red. masses --      1.0423                 1.0618                 1.0644
 Frc consts  --      5.7307                 5.8391                 5.8640
 IR Inten    --      6.1754                61.9259                38.1946

                     82                     83                     84
                      A                      A                      A
 Frequencies --   3075.8513              3084.8614              3089.8490
 Red. masses --      1.1037                 1.0996                 1.0879
 Frc consts  --      6.1522                 6.1653                 6.1195
 IR Inten    --      8.8945                 5.7008                50.1410

                     85                     86                     87
                      A                      A                      A
 Frequencies --   3094.3300              3098.3391              3100.6443
 Red. masses --      1.1015                 1.1030                 1.0881
 Frc consts  --      6.2141                 6.2386                 6.1636
 IR Inten    --      9.5584                39.3337                29.5136

                     88                     89                     90
                      A                      A                      A
 Frequencies --   3103.1226              3105.9402              3110.8146
 Red. masses --      1.1012                 1.1006                 1.1007
 Frc consts  --      6.2478                 6.2556                 6.2757
 IR Inten    --     22.3526               128.8976                16.5588

                     91                     92                     93
                      A                      A                      A
 Frequencies --   3116.9396              3137.2502              3158.0210
 Red. masses --      1.0974                 1.1018                 1.0978
 Frc consts  --      6.2816                 6.3893                 6.4504
 IR Inten    --     32.5245                20.7507                 6.0405

 - Thermochemistry -
 -------------------
 Temperature   298.150 Kelvin.  Pressure   1.00000 Atm.
 Atom     1 has atomic number  8 and mass  15.99491

 Molecular mass:   180.15142 amu.
 Principal axes and moments of inertia in atomic units:
                           1         2         3
     Eigenvalues --  1449.508862597.394162931.17729
           X            1.00000  -0.00105   0.00004
           Y            0.00105   0.99998   0.00657
           Z           -0.00005  -0.00657   0.99998
 This molecule is an asymmetric top.
 Rotational symmetry number  1.
 Warning -- assumption of classical behavior for rotation
           may cause significant error
 Rotational temperatures (Kelvin)      0.05975     0.03335     0.02955
 Rotational constants (GHZ):           1.24507     0.69483     0.61571
 Zero-point vibrational energy     792101.8 (Joules/Mol)
                                  189.31688 (Kcal/Mol)
 Warning -- explicit consideration of  20 degrees of freedom as
           vibrations may cause significant error
 Vibrational temperatures:     72.41   112.49   219.26   272.87   286.01
          (Kelvin)            333.58   380.26   393.79   412.45   427.47
                              457.10   476.40   527.03   563.88   601.66
                              681.15   716.28   743.19   790.00   874.23
                              964.94  1106.30  1166.28  1169.52  1184.41
                             1221.87  1255.87  1265.40  1277.57  1351.62
                             1362.95  1384.10  1402.92  1438.70  1462.25
                             1501.49  1510.39  1536.56  1550.70  1561.15
                             1581.06  1643.44  1680.02  1735.48  1737.21
                             1801.24  1803.03  1818.91  1822.22  1833.21
                             1878.04  1895.50  1924.87  1945.95  1955.59
                             1972.09  1992.03  2006.29  2017.04  2050.56
                             2055.19  2097.02  2174.68  2178.80  2186.33
                             2193.00  2198.70  2204.38  2212.42  2218.12
                             2233.65  2238.69  2592.34  4312.45  4368.69
                             4375.38  4379.28  4384.24  4395.20  4395.70
                             4399.61  4425.46  4438.43  4445.60  4452.05
                             4457.82  4461.14  4464.70  4468.76  4475.77
                             4484.58  4513.80  4543.69

 Zero-point correction=                           0.301696 (Hartree/Particle)
 Thermal correction to Energy=                    0.314347
 Thermal correction to Enthalpy=                  0.315291
 Thermal correction to Gibbs Free Energy=         0.263935
 Sum of electronic and zero-point Energies=           -544.249629
 Sum of electronic and thermal Energies=              -544.236978
 Sum of electronic and thermal Enthalpies=            -544.236033
 Sum of electronic and thermal Free Energies=         -544.287389

                     E (Thermal)             CV                S
                      KCal/Mol        Cal/Mol-Kelvin    Cal/Mol-Kelvin
 Total                  197.256             51.483            108.087
 Electronic               0.000              0.000              0.000
 Translational            0.889              2.981             41.473
 Rotational               0.889              2.981             30.779
 Vibrational            195.478             45.521             35.836
 Vibration     1          0.595              1.977              4.804
 Vibration     2          0.599              1.964              3.936
 Vibration     3          0.619              1.900              2.642
 Vibration     4          0.633              1.854              2.231
 Vibration     5          0.637              1.842              2.144
 Vibration     6          0.653              1.792              1.865
 Vibration     7          0.671              1.738              1.633
 Vibration     8          0.676              1.722              1.573
 Vibration     9          0.684              1.698              1.494
 Vibration    10          0.691              1.679              1.433
 Vibration    11          0.704              1.640              1.322
 Vibration    12          0.713              1.613              1.255
 Vibration    13          0.739              1.542              1.095
 Vibration    14          0.759              1.487              0.993
 Vibration    15          0.781              1.431              0.898
 Vibration    16          0.830              1.309              0.728
 Vibration    17          0.853              1.255              0.664
 Vibration    18          0.872              1.213              0.618
 Vibration    19          0.904              1.142              0.546
 Vibration    20          0.966              1.016              0.437

 Normal termination of Gaussian 16 at Sat Feb 24 03:34:34 2024.
