 Gaussian 16, Revision A.03,
 Gaussian 16:  EM64M-G16RevA.03 25-Dec-2016

 ---------------------
 # freq b3lyp/6-31g(d)
 ---------------------

 ---------
 good luck
 ---------
 Symbolic Z-matrix:
 Charge =  0 Multiplicity = 1

                         Standard orientation:
 ---------------------------------------------------------------------
 Center     Atomic      Atomic             Coordinates (Angstroms)
 Number     Number       Type             X           Y           Z
 ---------------------------------------------------------------------
      1          8           0       -3.308345    0.579383   -0.457708
      2          6           0       -2.176302    0.178897   -0.280303
      3          6           0       -1.689674   -1.208773   -0.713795
      4          6           0       -0.248763   -1.423147   -0.213215
      5          6           0        0.649336   -0.351790   -0.881289
      6          6           0        0.098941    1.071574   -0.615284
      7          6           0       -1.073705    0.989967    0.397400
      8          6           0       -0.641731    0.224690    1.674667
      9          6           0       -0.236730   -1.236968    1.318652
     10          6           0        1.336900    1.855703   -0.117186
     11          8           0        2.375469    0.898314    0.160965
     12          6           0        2.062066   -0.343745   -0.302427
     13          8           0        2.822639   -1.273396   -0.217461
     14          1           0       -2.376689   -1.962489   -0.309295
     15          1           0       -1.760958   -1.278283   -1.807896
     16          1           0        0.119659   -2.419028   -0.477748
     17          1           0        0.733020   -0.564661   -1.953591
     18          1           0       -0.270876    1.533230   -1.536383
     19          1           0       -1.458178    1.985990    0.637101
     20          1           0        0.193781    0.754214    2.146596
     21          1           0       -1.461976    0.240262    2.399702
     22          1           0       -0.936409   -1.951248    1.767897
     23          1           0        0.753010   -1.477912    1.718582
     24          1           0        1.151814    2.418660    0.802104
     25          1           0        1.713685    2.548409   -0.876747
 ---------------------------------------------------------------------

 SCF Done:  E(RB3LYP) =  -613.970030083     A.U. after   14 cycles

 The electronic state is 1-A.
 Alpha  occ. eigenvalues --  -19.19796 -19.14542 -19.13836 -10.31787 -10.28090
 Alpha  occ. eigenvalues --  -10.26164 -10.22355 -10.21927 -10.21382 -10.21113
 Alpha  occ. eigenvalues --  -10.20555 -10.20346 -10.19817  -1.10612  -1.04504
 Alpha  occ. eigenvalues --   -1.02630  -0.88266  -0.79355  -0.77945  -0.74360
 Alpha  occ. eigenvalues --   -0.72581  -0.63851  -0.62848  -0.58794  -0.56746
 Alpha  occ. eigenvalues --   -0.53717  -0.52337  -0.50793  -0.48151  -0.46959
 Alpha  occ. eigenvalues --   -0.45782  -0.45104  -0.43454  -0.42481  -0.42035
 Alpha  occ. eigenvalues --   -0.40896  -0.40589  -0.39905  -0.38129  -0.37857
 Alpha  occ. eigenvalues --   -0.36238  -0.35756  -0.33383  -0.32933  -0.31565
 Alpha  occ. eigenvalues --   -0.30078  -0.27127  -0.24502
 Alpha virt. eigenvalues --   -0.02548   0.00233   0.05786   0.08790   0.09212
 Alpha virt. eigenvalues --    0.10371   0.11330   0.12533   0.13522   0.14229
 Alpha virt. eigenvalues --    0.15333   0.16139   0.16579   0.17042   0.18028

 Mulliken charges:
               1
     1  O   -0.449621
     2  C    0.452976
     3  C   -0.362964
     4  C   -0.093894
     5  C   -0.223865
     6  C   -0.161379
     7  C   -0.173374
     8  C   -0.304358
     9  C   -0.301245
    10  C   -0.047759
    11  O   -0.448825
    12  C    0.626145
    13  O   -0.464503
    14  H    0.177248
    15  H    0.172337
    16  H    0.154132
    17  H    0.173396
    18  H    0.158373
    19  H    0.146583
    20  H    0.159844
    21  H    0.161671
    22  H    0.147526
    23  H    0.173373
    24  H    0.165178
    25  H    0.163004
 Sum of Mulliken charges =  -0.00000

 Dipole moment (field-independent basis, Debye):
    X=             -0.8967    Y=              1.1230    Z=             -0.2352  Tot=              1.4562
 Quadrupole moment (field-independent basis, Debye-Ang):
   XX=           -101.1209   YY=            -72.2657   ZZ=            -70.7720
   XY=              9.5639   XZ=             -3.4578   YZ=             -0.2452

  Exact polarizability: 107.093  -2.807 101.993   1.447   1.488  85.094
 Approx polarizability: 156.423 -12.139 154.934   4.876   2.782 128.031

                      1                      2                      3
                      A                      A                      A
 Frequencies --     54.1847               105.4243               134.9279
 Red. masses --      4.9141                 6.0808                 5.3093
 Frc consts  --      0.0085                 0.0398                 0.0569
 IR Inten    --      9.5161                 2.7245                 0.9657

                      4                      5                      6
                      A                      A                      A
 Frequencies --    177.7964               228.2045               257.7495
 Red. masses --      4.1923                 2.2012                 2.6964
 Frc consts  --      0.0781                 0.0675                 0.1055
 IR Inten    --      4.6411                 1.7637                 2.7268

                      7                      8                      9
                      A                      A                      A
 Frequencies --    330.8495               358.8753               442.6964
 Red. masses --      2.2807                 4.7850                 4.4284
 Frc consts  --      0.1471                 0.3631                 0.5113
 IR Inten    --      0.0501                 1.1313                 0.6843

                     10                     11                     12
                      A                      A                      A
 Frequencies --    464.8150               506.3670               539.8305
 Red. masses --      4.5159                 5.3139                 4.5753
 Frc consts  --      0.5749                 0.8028                 0.7856
 IR Inten    --     10.4284                 2.1541                 3.7721

                     13                     14                     15
                      A                      A                      A
 Frequencies --    580.0086               608.6677               657.9570
 Red. masses --      3.8678                 3.1773                 5.3290
 Frc consts  --      0.7666                 0.6935                 1.3592
 IR Inten    --      0.9702                 0.8478                 2.5226

                     16                     17                     18
                      A                      A                      A
 Frequencies --    702.3556               730.5062               761.4635
 Red. masses --      5.6646                 5.7182                 4.7119
 Frc consts  --      1.6464                 1.7979                 1.6097
 IR Inten    --      3.8786                 1.3523                 1.9144

                     19                     20                     21
                      A                      A                      A
 Frequencies --    797.9647               827.1151               849.9173
 Red. masses --      2.4807                 1.9398                 2.3505
 Frc consts  --      0.9307                 0.7819                 1.0004
 IR Inten    --      3.3421                 1.7919                 1.8181

                     22                     23                     24
                      A                      A                      A
 Frequencies --    866.4181               893.1347               934.9992
 Red. masses --      2.2546                 2.3885                 2.7313
 Frc consts  --      0.9972                 1.1225                 1.4069
 IR Inten    --      2.3303                 5.5117                10.5123

                     25                     26                     27
                      A                      A                      A
 Frequencies --    953.4338               979.8114              1009.9904
 Red. masses --      2.0725                 3.5763                 1.9798
 Frc consts  --      1.1100                 2.0229                 1.1899
 IR Inten    --      0.4764                 2.9716                 2.1960

                     28                     29                     30
                      A                      A                      A
 Frequencies --   1032.7992              1052.6505              1075.0655
 Red. masses --      3.1658                 2.3613                 4.3657
 Frc consts  --      1.9896                 1.5416                 2.9729
 IR Inten    --     37.4973                 5.2184                54.0948

                     31                     32                     33
                      A                      A                      A
 Frequencies --   1082.3259              1092.1451              1103.3718
 Red. masses --      2.0417                 2.5799                 1.7972
 Frc consts  --      1.4092                 1.8131                 1.2891
 IR Inten    --      6.3050                16.5964                 0.8265

                     34                     35                     36
                      A                      A                      A
 Frequencies --   1141.2965              1170.6668              1193.7839
 Red. masses --      1.3126                 1.1614                 2.8560
 Frc consts  --      1.0074                 0.9378                 2.3981
 IR Inten    --     19.3811                 8.0429               166.4792

                     37                     38                     39
                      A                      A                      A
 Frequencies --   1212.8292              1247.3060              1251.3129
 Red. masses --      1.8239                 1.3856                 1.3055
 Frc consts  --      1.5807                 1.2701                 1.2044
 IR Inten    --     14.7945                26.6339                 3.1697

                     40                     41                     42
                      A                      A                      A
 Frequencies --   1260.4646              1269.1830              1293.3447
 Red. masses --      1.2749                 1.4422                 1.4859
 Frc consts  --      1.1934                 1.3687                 1.4644
 IR Inten    --      0.2779                 9.5366                 3.6763

                     43                     44                     45
                      A                      A                      A
 Frequencies --   1317.2777              1326.4435              1348.3650
 Red. masses --      1.6770                 1.3848                 1.4810
 Frc consts  --      1.7145                 1.4355                 1.5865
 IR Inten    --      2.2472                 1.6024                 0.5535

                     46                     47                     48
                      A                      A                      A
 Frequencies --   1355.1056              1366.0344              1371.7929
 Red. masses --      1.4851                 1.6057                 1.4485
 Frc consts  --      1.6068                 1.7654                 1.6060
 IR Inten    --      1.5319                19.1408                 1.2882

                     49                     50                     51
                      A                      A                      A
 Frequencies --   1385.9552              1397.3736              1424.2321
 Red. masses --      1.4798                 1.3750                 1.4757
 Frc consts  --      1.6748                 1.5819                 1.7636
 IR Inten    --      1.7672                 6.9411                17.7677

                     52                     53                     54
                      A                      A                      A
 Frequencies --   1476.3979              1524.7754              1545.9134
 Red. masses --      1.0852                 1.0748                 1.0906
 Frc consts  --      1.3937                 1.4723                 1.5356
 IR Inten    --      8.8731                 2.4134                 7.1376

                     55                     56                     57
                      A                      A                      A
 Frequencies --   1554.3069              1829.7640              1873.0388
 Red. masses --      1.0834                11.9363                12.8371
 Frc consts  --      1.5421                23.5455                26.5346
 IR Inten    --      4.5192               232.0115               306.2594

                     58                     59                     60
                      A                      A                      A
 Frequencies --   3047.4782              3060.1631              3063.9954
 Red. masses --      1.0626                 1.0623                 1.0841
 Frc consts  --      5.8142                 5.8611                 5.9964
 IR Inten    --     11.6122                15.2374                 5.8925

                     61                     62                     63
                      A                      A                      A
 Frequencies --   3066.7992              3071.5298              3083.0423
 Red. masses --      1.0678                 1.0681                 1.0788
 Frc consts  --      5.9174                 5.9368                 6.0414
 IR Inten    --     23.2856                29.4524                24.6452

                     64                     65                     66
                      A                      A                      A
 Frequencies --   3089.8485              3095.3348              3096.7439
 Red. masses --      1.1002                 1.0972                 1.0877
 Frc consts  --      6.1889                 6.1936                 6.1456
 IR Inten    --     11.9451                 9.5591                49.0273

                     67                     68                     69
                      A                      A                      A
 Frequencies --   3100.7851              3115.6632              3120.5825
 Red. masses --      1.0891                 1.1030                 1.1091
 Frc consts  --      6.1698                 6.3087                 6.3635
 IR Inten    --      5.1317                35.0691                22.7643

 - Thermochemistry -
 -------------------
 Temperature   298.150 Kelvin.  Pressure   1.00000 Atm.
 Atom     1 has atomic number  8 and mass  15.99491

 Molecular mass:   180.07864 amu.
 Principal axes and moments of inertia in atomic units:
                           1         2         3
     Eigenvalues --  1156.887622547.328892905.20440
           X            0.99963   0.02689  -0.00439
           Y           -0.02689   0.99964  -0.00049
           Z            0.00437   0.00061   0.99999
 This molecule is an asymmetric top.
 Rotational symmetry number  1.
 Warning -- assumption of classical behavior for rotation
           may cause significant error
 Rotational temperatures (Kelvin)      0.07487     0.03400     0.02981
 Rotational constants (GHZ):           1.56000     0.70848     0.62121
 Zero-point vibrational energy     552332.3 (Joules/Mol)
                                  132.01059 (Kcal/Mol)
 Warning -- explicit consideration of  14 degrees of freedom as
           vibrations may cause significant error
 Vibrational temperatures:     77.96   151.68   194.13   255.81   328.34
          (Kelvin)            370.84   476.02   516.34   636.94   668.77
                              728.55   776.70   834.50   875.74   946.65
                             1010.53  1051.04  1095.58  1148.09  1190.03
                             1222.84  1246.58  1285.02  1345.26  1371.78
                             1409.73  1453.15  1485.97  1514.53  1546.78
                             1557.23  1571.35  1587.51  1642.07  1684.33
                             1717.59  1744.99  1794.60  1800.36  1813.53
                             1826.07  1860.83  1895.27  1908.46  1940.00
                             1949.69  1965.42  1973.70  1994.08  2010.51
                             2049.15  2124.21  2193.81  2224.22  2236.30
                             2632.62  2694.89  4384.64  4402.89  4408.41
                             4412.44  4419.25  4435.81  4445.60  4453.50
                             4455.52  4461.34  4482.74  4489.82

 Zero-point correction=                           0.210372 (Hartree/Particle)
 Thermal correction to Energy=                    0.220348
 Thermal correction to Enthalpy=                  0.221292
 Thermal correction to Gibbs Free Energy=         0.174562
 Sum of electronic and zero-point Energies=           -613.759658
 Sum of electronic and thermal Energies=              -613.749682
 Sum of electronic and thermal Enthalpies=            -613.748738
 Sum of electronic and thermal Free Energies=         -613.795468

                     E (Thermal)             CV                S
                      KCal/Mol        Cal/Mol-Kelvin    Cal/Mol-Kelvin
 Total                  138.271             40.278             98.352
 Electronic               0.000              0.000              0.000
 Translational            0.889              2.981             41.471
 Rotational               0.889              2.981             30.527
 Vibrational            136.493             34.316             26.353
 Vibration     1          0.596              1.976              4.659
 Vibration     2          0.605              1.945              3.351
 Vibration     3          0.613              1.918              2.875
 Vibration     4          0.628              1.870              2.351
 Vibration     5          0.651              1.798              1.893
 Vibration     6          0.667              1.750              1.677
 Vibration     7          0.713              1.614              1.256
 Vibration     8          0.734              1.557              1.127
 Vibration     9          0.802              1.377              0.818
 Vibration    10          0.822              1.328              0.752
 Vibration    11          0.862              1.236              0.642
 Vibration    12          0.895              1.162              0.566
 Vibration    13          0.937              1.075              0.485
 Vibration    14          0.968              1.013              0.435

 Normal termination of Gaussian 16 at Sat Feb 24 03:45:39 2024.
