 Gaussian 16, Revision A.03,
 Gaussian 16:  EM64M-G16RevA.03 25-Dec-2016

 ---------------------
 # freq b3lyp/6-31g(d)
 ---------------------

 ---------
 good luck
 ---------
 Symbolic Z-matrix:
 Charge =  0 Multiplicity = 1

                         Standard orientation:
 ---------------------------------------------------------------------
 Center     Atomic      Atomic             Coordinates (Angstroms)
 Number     Number       Type             X           Y           Z
 ---------------------------------------------------------------------
      1          8           0       -0.000003    2.790083   -1.218006
      2          6           0       -0.000002    1.790654   -0.539650
      3          6           0        1.156256    0.950184    0.013424
      4          6           0        0.799129   -0.418842   -0.643590
      5          6           0        1.495494   -1.648635   -0.039642
      6          6           0        3.025283   -1.577191   -0.120319
      7          6           0       -0.799129   -0.418843   -0.643589
      8          6           0       -1.495492   -1.648636   -0.039642
      9          6           0       -3.025283   -1.577192   -0.120318
     10          6           0       -1.156256    0.950183    0.013427
     11          6           0       -0.786073    0.955935    1.516049
     12          6           0        0.786077    0.955936    1.516047
     13          1           0        2.153033    1.325508   -0.221727
     14          1           0        1.126370   -0.361700   -1.690872
     15          1           0        1.193594   -1.798957    1.004020
     16          1           0        1.154667   -2.541175   -0.579825
     17          1           0        3.425099   -0.749044    0.475731
     18          1           0        3.361007   -1.432054   -1.154625
     19          1           0        3.480810   -2.502122    0.250881
     20          1           0       -1.126372   -0.361699   -1.690871
     21          1           0       -1.193592   -1.798960    1.004020
     22          1           0       -1.154667   -2.541176   -0.579827
     23          1           0       -3.480807   -2.502125    0.250881
     24          1           0       -3.425096   -0.749046    0.475735
     25          1           0       -3.361007   -1.432054   -1.154623
     26          1           0       -2.153035    1.325505   -0.221721
     27          1           0       -1.202683    0.100064    2.054353
     28          1           0       -1.177159    1.858488    1.997489
     29          1           0        1.202690    0.100067    2.054351
     30          1           0        1.177162    1.858491    1.997486
 ---------------------------------------------------------------------

 SCF Done:  E(RB3LYP) =  -505.223005369     A.U. after   13 cycles

 The electronic state is 1-A.
 Alpha  occ. eigenvalues --  -19.13791 -10.26409 -10.19679 -10.19665 -10.19148
 Alpha  occ. eigenvalues --  -10.19131 -10.18944 -10.18941 -10.18642 -10.18641
 Alpha  occ. eigenvalues --  -10.17834 -10.17833  -1.03579  -0.87463  -0.78694
 Alpha  occ. eigenvalues --   -0.77929  -0.72651  -0.71914  -0.66835  -0.63502
 Alpha  occ. eigenvalues --   -0.59514  -0.58991  -0.52974  -0.52231  -0.50741
 Alpha  occ. eigenvalues --   -0.46709  -0.45494  -0.44493  -0.43512  -0.42223
 Alpha  occ. eigenvalues --   -0.40861  -0.40089  -0.39603  -0.38466  -0.38329
 Alpha  occ. eigenvalues --   -0.36182  -0.36123  -0.35851  -0.35010  -0.34105
 Alpha  occ. eigenvalues --   -0.33910  -0.33542  -0.32086  -0.30402  -0.29243
 Alpha  occ. eigenvalues --   -0.22566
 Alpha virt. eigenvalues --   -0.00625   0.06938   0.09187   0.09894   0.10724
 Alpha virt. eigenvalues --    0.11772   0.13566   0.13752   0.14221   0.14665
 Alpha virt. eigenvalues --    0.16082   0.16488   0.16762   0.18042   0.18538

 Mulliken charges:
               1
     1  O   -0.444843
     2  C    0.422407
     3  C   -0.169928
     4  C   -0.103067
     5  C   -0.261377
     6  C   -0.450545
     7  C   -0.103067
     8  C   -0.261377
     9  C   -0.450544
    10  C   -0.169928
    11  C   -0.290507
    12  C   -0.290507
    13  H    0.140157
    14  H    0.134746
    15  H    0.135324
    16  H    0.137685
    17  H    0.149758
    18  H    0.145486
    19  H    0.144699
    20  H    0.134746
    21  H    0.135324
    22  H    0.137685
    23  H    0.144699
    24  H    0.149758
    25  H    0.145486
    26  H    0.140157
    27  H    0.147412
    28  H    0.151376
    29  H    0.147412
    30  H    0.151376
 Sum of Mulliken charges =  -0.00000

 Dipole moment (field-independent basis, Debye):
    X=              0.0000    Y=             -2.6940    Z=              1.5482  Tot=              3.1072
 Quadrupole moment (field-independent basis, Debye-Ang):
   XX=            -73.3327   YY=            -83.0661   ZZ=            -75.2504
   XY=              0.0000   XZ=             -0.0000   YZ=              5.9424

  Exact polarizability: 117.057   0.000 114.067   0.000  -1.224  98.111
 Approx polarizability: 150.061  -0.000 164.566   0.000  -8.906 153.146

                      1                      2                      3
                      A                      A                      A
 Frequencies --     46.9901                94.8290               105.9362
 Red. masses --      3.1980                 2.3958                 1.9240
 Frc consts  --      0.0042                 0.0127                 0.0127
 IR Inten    --      0.4738                 0.2969                 0.0013

                      4                      5                      6
                      A                      A                      A
 Frequencies --    121.6247               163.8760               199.9105
 Red. masses --      4.9619                 3.0505                 2.8108
 Frc consts  --      0.0432                 0.0483                 0.0662
 IR Inten    --      2.1154                 0.3691                 0.4642

                      7                      8                      9
                      A                      A                      A
 Frequencies --    224.4342               236.1556               282.1073
 Red. masses --      1.1799                 1.2056                 1.7276
 Frc consts  --      0.0350                 0.0396                 0.0810
 IR Inten    --      0.0495                 0.0101                 0.3403

                     10                     11                     12
                      A                      A                      A
 Frequencies --    302.3205               325.0057               408.9575
 Red. masses --      2.2960                 3.0522                 3.3204
 Frc consts  --      0.1236                 0.1900                 0.3272
 IR Inten    --      0.0577                 0.6344                 2.5442

                     13                     14                     15
                      A                      A                      A
 Frequencies --    420.0767               458.0201               531.9254
 Red. masses --      3.7691                 2.8759                 2.7712
 Frc consts  --      0.3919                 0.3555                 0.4620
 IR Inten    --      0.1424                 0.7450                 5.5438

                     16                     17                     18
                      A                      A                      A
 Frequencies --    593.2785               622.9680               720.6763
 Red. masses --      4.1360                 4.0104                 2.8116
 Frc consts  --      0.8577                 0.9170                 0.8604
 IR Inten    --      0.2470                 1.1945                 0.4621

                     19                     20                     21
                      A                      A                      A
 Frequencies --    736.3306               767.8536               778.7662
 Red. masses --      2.0829                 2.1738                 2.3229
 Frc consts  --      0.6654                 0.7551                 0.8300
 IR Inten    --      9.5780                 0.9242                 1.1938

                     22                     23                     24
                      A                      A                      A
 Frequencies --    822.2854               828.0864               858.4992
 Red. masses --      1.3282                 2.2553                 1.6164
 Frc consts  --      0.5291                 0.9112                 0.7019
 IR Inten    --      3.7226                 7.2170                 1.3345

                     25                     26                     27
                      A                      A                      A
 Frequencies --    878.0885               891.4308               932.0384
 Red. masses --      2.0442                 3.7998                 1.7550
 Frc consts  --      0.9287                 1.7790                 0.8982
 IR Inten    --      0.4912                 3.4121                 0.7729

                     28                     29                     30
                      A                      A                      A
 Frequencies --    961.0360               985.0221              1009.5138
 Red. masses --      2.1438                 1.8134                 2.9573
 Frc consts  --      1.1666                 1.0366                 1.7757
 IR Inten    --      2.5054                 2.8492                 0.1613

                     31                     32                     33
                      A                      A                      A
 Frequencies --   1022.2311              1034.5374              1062.8181
 Red. masses --      2.2588                 1.5649                 2.5457
 Frc consts  --      1.3907                 0.9868                 1.6942
 IR Inten    --      1.5360                 1.5006                 0.0626

                     34                     35                     36
                      A                      A                      A
 Frequencies --   1074.2219              1105.5861              1111.5847
 Red. masses --      1.6764                 2.0653                 1.9350
 Frc consts  --      1.1397                 1.4874                 1.4087
 IR Inten    --      1.0429                 0.4419                10.7629

                     37                     38                     39
                      A                      A                      A
 Frequencies --   1133.4058              1153.7935              1165.9061
 Red. masses --      1.5001                 1.2759                 2.8836
 Frc consts  --      1.1354                 1.0008                 2.3095
 IR Inten    --      1.6626                 2.3160                30.0905

                     40                     41                     42
                      A                      A                      A
 Frequencies --   1176.6171              1192.5262              1211.4277
 Red. masses --      1.9963                 1.4432                 1.6544
 Frc consts  --      1.6283                 1.2093                 1.4304
 IR Inten    --      7.4982                 0.5978                 0.0248

                     43                     44                     45
                      A                      A                      A
 Frequencies --   1260.0295              1276.4215              1285.3184
 Red. masses --      1.3592                 1.4950                 1.2389
 Frc consts  --      1.2714                 1.4351                 1.2059
 IR Inten    --      0.5064                 0.4949                 1.2366

                     46                     47                     48
                      A                      A                      A
 Frequencies --   1305.7315              1313.5477              1326.5723
 Red. masses --      1.3683                 1.2785                 1.3785
 Frc consts  --      1.3745                 1.2997                 1.4293
 IR Inten    --      0.1087                 1.0030                 0.9986

                     49                     50                     51
                      A                      A                      A
 Frequencies --   1330.4695              1338.2659              1362.3281
 Red. masses --      1.2632                 1.4066                 1.3874
 Frc consts  --      1.3175                 1.4842                 1.5171
 IR Inten    --      0.9227                 8.0334                 0.0243

                     52                     53                     54
                      A                      A                      A
 Frequencies --   1378.2000              1378.7265              1412.0237
 Red. masses --      1.2904                 1.4625                 1.4659
 Frc consts  --      1.4441                 1.6379                 1.7220
 IR Inten    --      7.0720                 0.2322                 0.2456

                     55                     56                     57
                      A                      A                      A
 Frequencies --   1413.0760              1441.6220              1442.2693
 Red. masses --      1.3262                 1.2354                 1.2356
 Frc consts  --      1.5602                 1.5128                 1.5144
 IR Inten    --      0.9204                 4.2088                 0.1822

                     58                     59                     60
                      A                      A                      A
 Frequencies --   1506.7566              1522.6314              1529.1247
 Red. masses --      1.0759                 1.0671                 1.0522
 Frc consts  --      1.4392                 1.4577                 1.4496
 IR Inten    --      1.4213                 0.7127                 0.0300

                     61                     62                     63
                      A                      A                      A
 Frequencies --   1530.1528              1530.5398              1535.6463
 Red. masses --      1.0439                 1.0480                 1.0617
 Frc consts  --      1.4400                 1.4464                 1.4751
 IR Inten    --     13.0566                 0.4743                 4.6385

                     64                     65                     66
                      A                      A                      A
 Frequencies --   1539.7167              1552.9667              1869.9841
 Red. masses --      1.0762                 1.0903                12.1062
 Frc consts  --      1.5032                 1.5493                24.9422
 IR Inten    --      0.0582                 6.3469               290.7100

                     67                     68                     69
                      A                      A                      A
 Frequencies --   3014.4062              3035.4896              3039.7552
 Red. masses --      1.0853                 1.0834                 1.0614
 Frc consts  --      5.8105                 5.8816                 5.7785
 IR Inten    --      7.0985                31.3130                27.5736

                     70                     71                     72
                      A                      A                      A
 Frequencies --   3045.1838              3045.6424              3051.5182
 Red. masses --      1.0363                 1.0376                 1.0602
 Frc consts  --      5.6620                 5.6709                 5.8164
 IR Inten    --     51.5875                 4.0642                27.9984

                     73                     74                     75
                      A                      A                      A
 Frequencies --   3067.4760              3071.7816              3078.6600
 Red. masses --      1.0755                 1.0883                 1.0692
 Frc consts  --      5.9622                 6.0501                 5.9707
 IR Inten    --     21.9411                 1.2042                12.2024

                     76                     77                     78
                      A                      A                      A
 Frequencies --   3083.3199              3105.6785              3110.8766
 Red. masses --      1.0933                 1.1035                 1.1019
 Frc consts  --      6.1240                 6.2709                 6.2826
 IR Inten    --     50.8345                 2.2980                 1.9150

                     79                     80                     81
                      A                      A                      A
 Frequencies --   3111.7895              3115.8511              3116.7671
 Red. masses --      1.1019                 1.1024                 1.1022
 Frc consts  --      6.2864                 6.3059                 6.3082
 IR Inten    --     82.9622                 3.3684               100.7057

                     82                     83                     84
                      A                      A                      A
 Frequencies --   3124.9176              3142.0815              3143.5870
 Red. masses --      1.1036                 1.0878                 1.0897
 Frc consts  --      6.3496                 6.3273                 6.3447
 IR Inten    --     36.4176                37.3619                12.1799

 - Thermochemistry -
 -------------------
 Temperature   298.150 Kelvin.  Pressure   1.00000 Atm.
 Atom     1 has atomic number  8 and mass  15.99491

 Molecular mass:   166.13577 amu.
 Principal axes and moments of inertia in atomic units:
                           1         2         3
     Eigenvalues --  1800.041641965.114362903.04917
           X            1.00000   0.00000  -0.00000
           Y           -0.00000   0.99944   0.03332
           Z            0.00000  -0.03332   0.99944
 This molecule is an asymmetric top.
 Rotational symmetry number  1.
 Warning -- assumption of classical behavior for rotation
           may cause significant error
 Rotational temperatures (Kelvin)      0.04812     0.04408     0.02984
 Rotational constants (GHZ):           1.00261     0.91839     0.62167
 Zero-point vibrational energy     715603.7 (Joules/Mol)
                                  171.03340 (Kcal/Mol)
 Warning -- explicit consideration of  16 degrees of freedom as
           vibrations may cause significant error
 Vibrational temperatures:     67.61   136.44   152.42   174.99   235.78
          (Kelvin)            287.63   322.91   339.78   405.89   434.97
                              467.61   588.40   604.40   658.99   765.32
                              853.60   896.31  1036.89  1059.42  1104.77
                             1120.47  1183.09  1191.43  1235.19  1263.37
                             1282.57  1341.00  1382.72  1417.23  1452.47
                             1470.76  1488.47  1529.16  1545.57  1590.69
                             1599.32  1630.72  1660.05  1677.48  1692.89
                             1715.78  1742.97  1812.90  1836.49  1849.29
                             1878.66  1889.90  1908.64  1914.25  1925.47
                             1960.09  1982.92  1983.68  2031.59  2033.10
                             2074.17  2075.10  2167.89  2190.73  2200.07
                             2201.55  2202.11  2209.45  2215.31  2234.37
                             2690.49  4337.06  4367.39  4373.53  4381.34
                             4382.00  4390.45  4413.41  4419.61  4429.51
                             4436.21  4468.38  4475.86  4477.17  4483.01
                             4484.33  4496.06  4520.75  4522.92

 Zero-point correction=                           0.272559 (Hartree/Particle)
 Thermal correction to Energy=                    0.284537
 Thermal correction to Enthalpy=                  0.285481
 Thermal correction to Gibbs Free Energy=         0.234686
 Sum of electronic and zero-point Energies=           -504.950446
 Sum of electronic and thermal Energies=              -504.938468
 Sum of electronic and thermal Enthalpies=            -504.937524
 Sum of electronic and thermal Free Energies=         -504.988319

                     E (Thermal)             CV                S
                      KCal/Mol        Cal/Mol-Kelvin    Cal/Mol-Kelvin
 Total                  178.550             46.588            106.908
 Electronic               0.000              0.000              0.000
 Translational            0.889              2.981             41.231
 Rotational               0.889              2.981             30.708
 Vibrational            176.772             40.626             34.969
 Vibration     1          0.595              1.979              4.940
 Vibration     2          0.603              1.953              3.558
 Vibration     3          0.605              1.944              3.342
 Vibration     4          0.609              1.931              3.074
 Vibration     5          0.623              1.887              2.505
 Vibration     6          0.638              1.840              2.134
 Vibration     7          0.649              1.804              1.923
 Vibration     8          0.655              1.785              1.832
 Vibration     9          0.681              1.707              1.521
 Vibration    10          0.694              1.669              1.404
 Vibration    11          0.709              1.625              1.285
 Vibration    12          0.773              1.451              0.930
 Vibration    13          0.783              1.427              0.892
 Vibration    14          0.816              1.343              0.772
 Vibration    15          0.887              1.179              0.583
 Vibration    16          0.951              1.046              0.461

 Normal termination of Gaussian 16 at Thu Feb 22 11:23:28 2024.
