 Gaussian 16, Revision A.03,
 Gaussian 16:  EM64M-G16RevA.03 25-Dec-2016

 ---------------------
 # freq b3lyp/6-31g(d)
 ---------------------

 ---------
 good luck
 ---------
 Symbolic Z-matrix:
 Charge =  0 Multiplicity = 1

                         Standard orientation:
 ---------------------------------------------------------------------
 Center     Atomic      Atomic             Coordinates (Angstroms)
 Number     Number       Type             X           Y           Z
 ---------------------------------------------------------------------
      1          8           0       -0.401726    1.833266    0.632663
      2          6           0        0.283287    1.013526    0.046658
      3          6           0       -0.239868   -0.333324   -0.465901
      4          6           0       -1.747661   -0.609511   -0.242595
      5          6           0       -2.632728    0.372265   -1.028603
      6          6           0       -2.168251   -0.666494    1.236345
      7          6           0        0.679049   -1.466969    0.064652
      8          6           0        2.155785   -1.234943   -0.282802
      9          6           0        2.648570    0.109705    0.266666
     10          6           0        1.763146    1.271935   -0.227078
     11          1           0       -0.076841   -0.301083   -1.557427
     12          1           0       -1.918749   -1.610769   -0.668506
     13          1           0       -2.364349    0.386747   -2.092828
     14          1           0       -2.534991    1.388330   -0.636902
     15          1           0       -3.686939    0.079219   -0.957722
     16          1           0       -1.597339   -1.414669    1.798076
     17          1           0       -3.226896   -0.941569    1.313600
     18          1           0       -2.031898    0.304451    1.719044
     19          1           0        0.574862   -1.544085    1.155098
     20          1           0        0.333377   -2.422564   -0.349867
     21          1           0        2.283121   -1.253993   -1.375255
     22          1           0        2.767595   -2.052994    0.117551
     23          1           0        3.691344    0.290156   -0.021028
     24          1           0        2.626277    0.083970    1.365006
     25          1           0        2.035473    2.222712    0.240341
     26          1           0        1.891793    1.382875   -1.314538
 ---------------------------------------------------------------------

 SCF Done:  E(RB3LYP) =  -427.830751633     A.U. after   13 cycles

 The electronic state is 1-A.
 Alpha  occ. eigenvalues --  -19.13499 -10.26900 -10.19464 -10.19397 -10.19154
 Alpha  occ. eigenvalues --  -10.19038 -10.18982 -10.18723 -10.16323 -10.16237
 Alpha  occ. eigenvalues --   -1.03331  -0.83613  -0.79279  -0.73958  -0.71675
 Alpha  occ. eigenvalues --   -0.67300  -0.62614  -0.59426  -0.56931  -0.51694
 Alpha  occ. eigenvalues --   -0.47376  -0.46727  -0.45030  -0.43709  -0.43327
 Alpha  occ. eigenvalues --   -0.41298  -0.40853  -0.39665  -0.38562  -0.37349
 Alpha  occ. eigenvalues --   -0.36482  -0.35516  -0.34761  -0.33378  -0.32713
 Alpha  occ. eigenvalues --   -0.32456  -0.31533  -0.30608  -0.23250
 Alpha virt. eigenvalues --   -0.01428   0.08450   0.09820   0.10531   0.13001
 Alpha virt. eigenvalues --    0.14087   0.14658   0.15311   0.15623   0.16551
 Alpha virt. eigenvalues --    0.16854   0.17425   0.18107   0.18446   0.19562

 Mulliken charges:
               1
     1  O   -0.452450
     2  C    0.451801
     3  C   -0.170041
     4  C   -0.057472
     5  C   -0.458741
     6  C   -0.461425
     7  C   -0.274845
     8  C   -0.266073
     9  C   -0.268492
    10  C   -0.340389
    11  H    0.136085
    12  H    0.115865
    13  H    0.128427
    14  H    0.174108
    15  H    0.136927
    16  H    0.134306
    17  H    0.136281
    18  H    0.176273
    19  H    0.145474
    20  H    0.140488
    21  H    0.132286
    22  H    0.139842
    23  H    0.142930
    24  H    0.145040
    25  H    0.162092
    26  H    0.151704
 Sum of Mulliken charges =  -0.00000

 Dipole moment (field-independent basis, Debye):
    X=              1.7457    Y=             -1.8994    Z=             -1.1606  Tot=              2.8288
 Quadrupole moment (field-independent basis, Debye-Ang):
   XX=            -61.2075   YY=            -66.8174   ZZ=            -62.8320
   XY=              2.0632   XZ=              0.4418   YZ=             -2.1374

  Exact polarizability: 107.132  -1.378  89.993  -1.630   0.979  82.019
 Approx polarizability: 133.166  -6.354 132.038  -5.983   7.086 126.246

                      1                      2                      3
                      A                      A                      A
 Frequencies --     68.6182                96.2866               139.9461
 Red. masses --      3.1329                 2.8055                 2.6317
 Frc consts  --      0.0087                 0.0153                 0.0304
 IR Inten    --      0.9126                 0.8901                 1.1931

                      4                      5                      6
                      A                      A                      A
 Frequencies --    198.1324               230.3045               236.5825
 Red. masses --      3.4068                 1.1776                 1.5006
 Frc consts  --      0.0788                 0.0368                 0.0495
 IR Inten    --      2.4901                 0.1313                 1.0467

                      7                      8                      9
                      A                      A                      A
 Frequencies --    250.8492               292.2043               308.2410
 Red. masses --      1.5036                 2.8928                 1.8359
 Frc consts  --      0.0557                 0.1455                 0.1028
 IR Inten    --      0.8133                 0.1113                 0.1568

                     10                     11                     12
                      A                      A                      A
 Frequencies --    393.5226               415.3803               436.6650
 Red. masses --      2.6593                 2.5955                 2.9812
 Frc consts  --      0.2426                 0.2639                 0.3349
 IR Inten    --      0.5995                 2.6802                 0.4506

                     13                     14                     15
                      A                      A                      A
 Frequencies --    447.6784               499.1523               615.8433
 Red. masses --      3.0239                 2.1023                 3.2303
 Frc consts  --      0.3571                 0.3086                 0.7218
 IR Inten    --      2.7000                 2.1574                 7.3838

                     16                     17                     18
                      A                      A                      A
 Frequencies --    671.5922               735.8131               822.8708
 Red. masses --      2.7465                 2.4476                 2.5866
 Frc consts  --      0.7299                 0.7808                 1.0319
 IR Inten    --      2.6408                 2.8371                 2.8515

                     19                     20                     21
                      A                      A                      A
 Frequencies --    848.3840               865.2518               905.6927
 Red. masses --      1.6602                 2.4802                 1.7721
 Frc consts  --      0.7041                 1.0940                 0.8564
 IR Inten    --     10.7035                 0.2550                 4.7136

                     22                     23                     24
                      A                      A                      A
 Frequencies --    917.3870               942.2962               961.1958
 Red. masses --      1.7010                 1.1795                 2.3512
 Frc consts  --      0.8435                 0.6170                 1.2799
 IR Inten    --      1.4269                 2.3713                 1.3540

                     25                     26                     27
                      A                      A                      A
 Frequencies --    977.9087              1031.2441              1037.9302
 Red. masses --      1.5184                 1.9025                 1.8065
 Frc consts  --      0.8555                 1.1921                 1.1467
 IR Inten    --      0.1103                 5.4500                 2.6249

                     28                     29                     30
                      A                      A                      A
 Frequencies --   1067.5912              1085.2365              1107.3364
 Red. masses --      1.7297                 1.7464                 1.5558
 Frc consts  --      1.1615                 1.2119                 1.1240
 IR Inten    --     19.8016                 2.3911                 0.0255

                     31                     32                     33
                      A                      A                      A
 Frequencies --   1144.1034              1153.4368              1171.1740
 Red. masses --      1.8504                 1.7389                 2.2523
 Frc consts  --      1.4270                 1.3630                 1.8202
 IR Inten    --     12.1851                14.4522                 4.2847

                     34                     35                     36
                      A                      A                      A
 Frequencies --   1221.5488              1243.4488              1273.5742
 Red. masses --      1.8335                 1.5148                 1.3760
 Frc consts  --      1.6120                 1.3799                 1.3149
 IR Inten    --      0.3486                13.6094                 0.9811

                     37                     38                     39
                      A                      A                      A
 Frequencies --   1292.0137              1320.3293              1344.5026
 Red. masses --      1.2741                 1.1951                 1.5357
 Frc consts  --      1.2531                 1.2275                 1.6356
 IR Inten    --      0.4825                 0.5888                14.6680

                     40                     41                     42
                      A                      A                      A
 Frequencies --   1357.3541              1379.4416              1384.3533
 Red. masses --      1.3782                 1.3952                 1.4126
 Frc consts  --      1.4961                 1.5642                 1.5950
 IR Inten    --      3.5331                 7.5740                 5.9970

                     43                     44                     45
                      A                      A                      A
 Frequencies --   1388.0335              1399.1357              1417.9065
 Red. masses --      1.4471                 1.4788                 1.4287
 Frc consts  --      1.6426                 1.7056                 1.6923
 IR Inten    --      5.0927                 1.7269                 3.2574

                     46                     47                     48
                      A                      A                      A
 Frequencies --   1426.3118              1447.2175              1498.3379
 Red. masses --      1.2830                 1.2530                 1.0906
 Frc consts  --      1.5378                 1.5462                 1.4425
 IR Inten    --      8.8124                11.0236                 6.2274

                     49                     50                     51
                      A                      A                      A
 Frequencies --   1518.6371              1519.2556              1519.8905
 Red. masses --      1.0715                 1.0715                 1.0724
 Frc consts  --      1.4560                 1.4572                 1.4596
 IR Inten    --      3.3196                 2.5061                 4.6884

                     52                     53                     54
                      A                      A                      A
 Frequencies --   1533.3980              1535.2942              1536.5945
 Red. masses --      1.0771                 1.0593                 1.0545
 Frc consts  --      1.4922                 1.4711                 1.4669
 IR Inten    --      1.3244                 6.0764                 3.1908

                     55                     56                     57
                      A                      A                      A
 Frequencies --   1551.6721              1802.4780              2976.3605
 Red. masses --      1.0557                11.0108                 1.0805
 Frc consts  --      1.4976                21.0769                 5.6396
 IR Inten    --      5.7012               150.5378                14.4713

                     58                     59                     60
                      A                      A                      A
 Frequencies --   2997.4728              3024.7888              3025.2170
 Red. masses --      1.0834                 1.0672                 1.0703
 Frc consts  --      5.7352                 5.7530                 5.7714
 IR Inten    --     31.7307                14.9403                14.8636

                     61                     62                     63
                      A                      A                      A
 Frequencies --   3037.8748              3039.0004              3043.1252
 Red. masses --      1.0604                 1.0609                 1.0396
 Frc consts  --      5.7660                 5.7730                 5.6722
 IR Inten    --     30.7981                15.8685                43.3839

                     64                     65                     66
                      A                      A                      A
 Frequencies --   3053.6685              3074.7557              3079.7536
 Red. masses --      1.0398                 1.0959                 1.1007
 Frc consts  --      5.7128                 6.1042                 6.1512
 IR Inten    --     31.1763                46.5249                31.4456

                     67                     68                     69
                      A                      A                      A
 Frequencies --   3085.5948              3099.8676              3107.5958
 Red. masses --      1.1040                 1.1008                 1.1007
 Frc consts  --      6.1927                 6.2323                 6.2628
 IR Inten    --     59.3070                38.8358                51.2310

                     70                     71                     72
                      A                      A                      A
 Frequencies --   3118.0561              3143.4411              3150.8099
 Red. masses --      1.0952                 1.0993                 1.0995
 Frc consts  --      6.2733                 6.4000                 6.4309
 IR Inten    --     19.8926                10.1212                18.9703

 - Thermochemistry -
 -------------------
 Temperature   298.150 Kelvin.  Pressure   1.00000 Atm.
 Atom     1 has atomic number  8 and mass  15.99491

 Molecular mass:   140.12012 amu.
 Principal axes and moments of inertia in atomic units:
                           1         2         3
     Eigenvalues --   850.743751852.219052226.02396
           X            0.99999   0.00462   0.00024
           Y           -0.00461   0.99925  -0.03846
           Z           -0.00042   0.03845   0.99926
 This molecule is an asymmetric top.
 Rotational symmetry number  1.
 Warning -- assumption of classical behavior for rotation
           may cause significant error
 Rotational temperatures (Kelvin)      0.10181     0.04676     0.03891
 Rotational constants (GHZ):           2.12137     0.97437     0.81075
 Zero-point vibrational energy     622321.1 (Joules/Mol)
                                  148.73831 (Kcal/Mol)
 Warning -- explicit consideration of  15 degrees of freedom as
           vibrations may cause significant error
 Vibrational temperatures:     98.73   138.53   201.35   285.07   331.36
          (Kelvin)            340.39   360.92   420.42   443.49   566.19
                              597.64   628.26   644.11   718.17   886.06
                              966.27  1058.67  1183.93  1220.64  1244.90
                             1303.09  1319.92  1355.75  1382.95  1406.99
                             1483.73  1493.35  1536.03  1561.41  1593.21
                             1646.11  1659.54  1685.06  1757.54  1789.05
                             1832.39  1858.92  1899.66  1934.44  1952.93
                             1984.71  1991.78  1997.07  2013.04  2040.05
                             2052.14  2082.22  2155.77  2184.98  2185.87
                             2186.78  2206.22  2208.95  2210.82  2232.51
                             2593.36  4282.32  4312.69  4352.00  4352.61
                             4370.82  4372.44  4378.38  4393.55  4423.89
                             4431.08  4439.48  4460.02  4471.14  4486.19
                             4522.71  4533.31

 Zero-point correction=                           0.237030 (Hartree/Particle)
 Thermal correction to Energy=                    0.247526
 Thermal correction to Enthalpy=                  0.248471
 Thermal correction to Gibbs Free Energy=         0.201639
 Sum of electronic and zero-point Energies=           -427.593722
 Sum of electronic and thermal Energies=              -427.583225
 Sum of electronic and thermal Enthalpies=            -427.582281
 Sum of electronic and thermal Free Energies=         -427.629113

                     E (Thermal)             CV                S
                      KCal/Mol        Cal/Mol-Kelvin    Cal/Mol-Kelvin
 Total                  155.325             40.511             98.566
 Electronic               0.000              0.000              0.000
 Translational            0.889              2.981             40.724
 Rotational               0.889              2.981             29.641
 Vibrational            153.548             34.549             28.202
 Vibration     1          0.598              1.969              4.193
 Vibration     2          0.603              1.952              3.528
 Vibration     3          0.615              1.913              2.805
 Vibration     4          0.637              1.842              2.150
 Vibration     5          0.652              1.795              1.877
 Vibration     6          0.655              1.785              1.828
 Vibration     7          0.663              1.761              1.725
 Vibration     8          0.688              1.688              1.461
 Vibration     9          0.698              1.658              1.372
 Vibration    10          0.761              1.484              0.987
 Vibration    11          0.779              1.437              0.908
 Vibration    12          0.797              1.390              0.837
 Vibration    13          0.807              1.366              0.803
 Vibration    14          0.855              1.252              0.660
 Vibration    15          0.975              0.998              0.423

 Normal termination of Gaussian 16 at Wed Feb 21 19:38:29 2024.
