 Gaussian 16, Revision A.03,
 Gaussian 16:  EM64M-G16RevA.03 25-Dec-2016

 ---------------------
 # freq b3lyp/6-31g(d)
 ---------------------

 ---------
 good luck
 ---------
 Symbolic Z-matrix:
 Charge =  0 Multiplicity = 1

                         Standard orientation:
 ---------------------------------------------------------------------
 Center     Atomic      Atomic             Coordinates (Angstroms)
 Number     Number       Type             X           Y           Z
 ---------------------------------------------------------------------
      1          8           0        0.100384   -1.981302   -0.778610
      2          6           0        0.516268   -1.069375   -0.086622
      3          6           0       -0.314295    0.178037    0.248988
      4          6           0       -1.779824    0.060288   -0.231006
      5          6           0       -2.540153    1.394925   -0.171494
      6          6           0       -2.535671   -1.005251    0.581484
      7          6           0        0.464655    1.406578   -0.301034
      8          6           0        1.905849    1.472776    0.227677
      9          6           0        2.690940    0.193404   -0.085779
     10          6           0        1.946313   -1.053282    0.437880
     11          1           0       -0.312090    0.274077    1.348412
     12          1           0       -1.751283   -0.275789   -1.275895
     13          1           0       -2.528201    1.818120    0.842129
     14          1           0       -2.128716    2.145554   -0.853936
     15          1           0       -3.589495    1.242427   -0.449116
     16          1           0       -2.043774   -1.978835    0.519715
     17          1           0       -3.559385   -1.121713    0.206922
     18          1           0       -2.603323   -0.714756    1.638944
     19          1           0        0.475483    1.361284   -1.400036
     20          1           0       -0.065272    2.325346   -0.030436
     21          1           0        1.883627    1.628790    1.316332
     22          1           0        2.417635    2.343635   -0.200825
     23          1           0        2.820965    0.099711   -1.172755
     24          1           0        3.696924    0.236820    0.348738
     25          1           0        1.920293   -1.021833    1.537012
     26          1           0        2.439038   -1.981019    0.133112
 ---------------------------------------------------------------------

 SCF Done:  E(RB3LYP) =  -427.831262359     A.U. after   13 cycles

 The electronic state is 1-A.
 Alpha  occ. eigenvalues --  -19.13429 -10.26728 -10.19419 -10.19380 -10.19169
 Alpha  occ. eigenvalues --  -10.19043 -10.18962 -10.18488 -10.17153 -10.16364
 Alpha  occ. eigenvalues --   -1.03291  -0.83591  -0.79454  -0.73998  -0.71659
 Alpha  occ. eigenvalues --   -0.67669  -0.62768  -0.59021  -0.56373  -0.52864
 Alpha  occ. eigenvalues --   -0.47728  -0.46656  -0.44499  -0.43339  -0.42953
 Alpha  occ. eigenvalues --   -0.42204  -0.41591  -0.39569  -0.38301  -0.37815
 Alpha  occ. eigenvalues --   -0.36275  -0.35359  -0.34894  -0.33733  -0.33171
 Alpha  occ. eigenvalues --   -0.32326  -0.31426  -0.30556  -0.23426
 Alpha virt. eigenvalues --   -0.01266   0.08892   0.09941   0.10570   0.13096
 Alpha virt. eigenvalues --    0.14123   0.14330   0.15062   0.15424   0.15757
 Alpha virt. eigenvalues --    0.16975   0.17389   0.18078   0.18605   0.19021

 Mulliken charges:
               1
     1  O   -0.451734
     2  C    0.443994
     3  C   -0.160367
     4  C   -0.059574
     5  C   -0.455148
     6  C   -0.457904
     7  C   -0.279899
     8  C   -0.266659
     9  C   -0.269825
    10  C   -0.336014
    11  H    0.130040
    12  H    0.141023
    13  H    0.134922
    14  H    0.143955
    15  H    0.143623
    16  H    0.168198
    17  H    0.139148
    18  H    0.128176
    19  H    0.141632
    20  H    0.149146
    21  H    0.132919
    22  H    0.140174
    23  H    0.146750
    24  H    0.143474
    25  H    0.148796
    26  H    0.161153
 Sum of Mulliken charges =  -0.00000

 Dipole moment (field-independent basis, Debye):
    X=              1.1438    Y=              2.2147    Z=              1.2441  Tot=              2.7858
 Quadrupole moment (field-independent basis, Debye-Ang):
   XX=            -60.4659   YY=            -68.0945   ZZ=            -62.9426
   XY=             -0.3909   XZ=              0.5119   YZ=             -3.0457

  Exact polarizability: 106.625   1.559  93.887   1.926   1.453  79.483
 Approx polarizability: 129.250   4.850 134.398   4.554   9.456 128.333

                      1                      2                      3
                      A                      A                      A
 Frequencies --     70.2665                88.1263               133.9813
 Red. masses --      2.6063                 3.8632                 2.6639
 Frc consts  --      0.0076                 0.0177                 0.0282
 IR Inten    --      0.1468                 1.7079                 0.7932

                      4                      5                      6
                      A                      A                      A
 Frequencies --    189.7432               228.7690               247.1587
 Red. masses --      2.8457                 1.1093                 1.5982
 Frc consts  --      0.0604                 0.0342                 0.0575
 IR Inten    --      2.6454                 0.2089                 0.1461

                      7                      8                      9
                      A                      A                      A
 Frequencies --    272.0596               302.0256               322.4845
 Red. masses --      1.8486                 1.9223                 2.2774
 Frc consts  --      0.0806                 0.1033                 0.1395
 IR Inten    --      2.6614                 0.5386                 0.8954

                     10                     11                     12
                      A                      A                      A
 Frequencies --    383.3823               415.1124               430.7518
 Red. masses --      2.9638                 2.5340                 2.5396
 Frc consts  --      0.2567                 0.2573                 0.2776
 IR Inten    --      0.3845                 0.8822                 1.2576

                     13                     14                     15
                      A                      A                      A
 Frequencies --    456.1626               508.9358               575.6700
 Red. masses --      2.7567                 1.8716                 3.9092
 Frc consts  --      0.3380                 0.2856                 0.7633
 IR Inten    --      0.2322                 2.1881                 7.3822

                     16                     17                     18
                      A                      A                      A
 Frequencies --    684.9326               757.0739               826.4908
 Red. masses --      3.0471                 2.1579                 2.6187
 Frc consts  --      0.8422                 0.7287                 1.0539
 IR Inten    --      1.7455                 4.1820                 5.7313

                     19                     20                     21
                      A                      A                      A
 Frequencies --    853.9588               866.5426               909.3057
 Red. masses --      1.5851                 2.6087                 1.7147
 Frc consts  --      0.6810                 1.1541                 0.8353
 IR Inten    --      1.4580                 0.2890                 3.4541

                     22                     23                     24
                      A                      A                      A
 Frequencies --    920.5619               939.6773               957.5718
 Red. masses --      1.8996                 1.1940                 2.0540
 Frc consts  --      0.9485                 0.6212                 1.1097
 IR Inten    --      2.7297                 2.3237                 1.9708

                     25                     26                     27
                      A                      A                      A
 Frequencies --    978.9445              1013.2529              1034.4387
 Red. masses --      1.5401                 1.5506                 1.9942
 Frc consts  --      0.8696                 0.9380                 1.2572
 IR Inten    --      0.4733                 2.9350                 4.5910

                     28                     29                     30
                      A                      A                      A
 Frequencies --   1075.0487              1086.0216              1100.4230
 Red. masses --      1.9365                 1.8512                 1.6959
 Frc consts  --      1.3186                 1.2864                 1.2100
 IR Inten    --     15.0939                 2.0984                 0.4215

                     31                     32                     33
                      A                      A                      A
 Frequencies --   1147.7588              1166.7688              1174.5306
 Red. masses --      1.5883                 2.3049                 1.9964
 Frc consts  --      1.2328                 1.8487                 1.6226
 IR Inten    --     23.9616                15.7908                 1.2238

                     34                     35                     36
                      A                      A                      A
 Frequencies --   1205.7343              1238.2134              1270.4162
 Red. masses --      1.7484                 1.5410                 1.3951
 Frc consts  --      1.4976                 1.3920                 1.3267
 IR Inten    --      5.7813                16.7350                 0.3279

                     37                     38                     39
                      A                      A                      A
 Frequencies --   1291.8275              1315.5775              1335.4118
 Red. masses --      1.2897                 1.3366                 1.3534
 Frc consts  --      1.2680                 1.3630                 1.4220
 IR Inten    --      1.0469                 1.5518                 3.9139

                     40                     41                     42
                      A                      A                      A
 Frequencies --   1355.1293              1361.4635              1380.3245
 Red. masses --      1.3352                 1.3947                 1.3501
 Frc consts  --      1.4446                 1.5232                 1.5155
 IR Inten    --      3.8089                 4.2848                 1.4342

                     43                     44                     45
                      A                      A                      A
 Frequencies --   1386.9834              1400.4666              1411.8692
 Red. masses --      1.4424                 1.5100                 1.5243
 Frc consts  --      1.6349                 1.7449                 1.7902
 IR Inten    --      6.0684                 1.3064                12.3194

                     46                     47                     48
                      A                      A                      A
 Frequencies --   1427.9530              1447.5236              1500.8311
 Red. masses --      1.2580                 1.2274                 1.0944
 Frc consts  --      1.5114                 1.5152                 1.4525
 IR Inten    --      4.8696                 4.2620                 5.1579

                     49                     50                     51
                      A                      A                      A
 Frequencies --   1517.0574              1518.3609              1519.5771
 Red. masses --      1.0728                 1.0836                 1.0657
 Frc consts  --      1.4547                 1.4719                 1.4498
 IR Inten    --      3.9178                 5.0700                 4.8375

                     52                     53                     54
                      A                      A                      A
 Frequencies --   1529.6422              1533.0022              1536.6706
 Red. masses --      1.0567                 1.0713                 1.0681
 Frc consts  --      1.4567                 1.4834                 1.4860
 IR Inten    --      2.1216                 3.0890                 0.2213

                     55                     56                     57
                      A                      A                      A
 Frequencies --   1549.5237              1804.5551              2984.7795
 Red. masses --      1.0464                11.1346                 1.0804
 Frc consts  --      1.4802                21.3631                 5.6709
 IR Inten    --     10.9729               149.9500                 8.3795

                     58                     59                     60
                      A                      A                      A
 Frequencies --   3023.6781              3031.3562              3031.9441
 Red. masses --      1.0699                 1.0674                 1.0666
 Frc consts  --      5.7630                 5.7788                 5.7770
 IR Inten    --     14.5546                 3.2147                30.5894

                     61                     62                     63
                      A                      A                      A
 Frequencies --   3035.5446              3038.5827              3040.2271
 Red. masses --      1.0414                 1.0516                 1.0612
 Frc consts  --      5.6537                 5.7208                 5.7792
 IR Inten    --     18.3830                27.8561                26.4004

                     64                     65                     66
                      A                      A                      A
 Frequencies --   3050.9175              3076.3257              3084.8049
 Red. masses --      1.0726                 1.0951                 1.1026
 Frc consts  --      5.8824                 6.1062                 6.1816
 IR Inten    --     27.2196                52.6388                47.2108

                     67                     68                     69
                      A                      A                      A
 Frequencies --   3096.3256              3099.0412              3104.7546
 Red. masses --      1.0988                 1.0968                 1.0981
 Frc consts  --      6.2066                 6.2062                 6.2369
 IR Inten    --      2.6116                40.2080                77.0780

                     70                     71                     72
                      A                      A                      A
 Frequencies --   3120.1049              3120.8556              3149.1881
 Red. masses --      1.0967                 1.0999                 1.0978
 Frc consts  --      6.2904                 6.3117                 6.4148
 IR Inten    --     21.6279                35.1215                16.3981

 - Thermochemistry -
 -------------------
 Temperature   298.150 Kelvin.  Pressure   1.00000 Atm.
 Atom     1 has atomic number  8 and mass  15.99491

 Molecular mass:   140.12012 amu.
 Principal axes and moments of inertia in atomic units:
                           1         2         3
     Eigenvalues --   882.489681796.759962426.87756
           X            1.00000   0.00046  -0.00096
           Y           -0.00049   0.99966  -0.02599
           Z            0.00095   0.02599   0.99966
 This molecule is an asymmetric top.
 Rotational symmetry number  1.
 Warning -- assumption of classical behavior for rotation
           may cause significant error
 Rotational temperatures (Kelvin)      0.09815     0.04821     0.03569
 Rotational constants (GHZ):           2.04506     1.00444     0.74365
 Zero-point vibrational energy     622324.2 (Joules/Mol)
                                  148.73905 (Kcal/Mol)
 Warning -- explicit consideration of  15 degrees of freedom as
           vibrations may cause significant error
 Vibrational temperatures:    101.10   126.79   192.77   273.00   329.15
          (Kelvin)            355.61   391.43   434.55   463.98   551.60
                              597.25   619.76   656.32   732.25   828.26
                              985.47  1089.26  1189.14  1228.66  1246.76
                             1308.29  1324.48  1351.99  1377.73  1408.48
                             1457.84  1488.33  1546.76  1562.54  1583.26
                             1651.37  1678.72  1689.89  1734.78  1781.51
                             1827.85  1858.65  1892.82  1921.36  1949.73
                             1958.84  1985.98  1995.56  2014.96  2031.36
                             2054.51  2082.66  2159.36  2182.71  2184.58
                             2186.33  2200.81  2205.65  2210.93  2229.42
                             2596.35  4294.43  4350.40  4361.45  4362.29
                             4367.47  4371.84  4374.21  4389.59  4426.15
                             4438.35  4454.92  4458.83  4467.05  4489.14
                             4490.22  4530.98

 Zero-point correction=                           0.237031 (Hartree/Particle)
 Thermal correction to Energy=                    0.247504
 Thermal correction to Enthalpy=                  0.248449
 Thermal correction to Gibbs Free Energy=         0.201575
 Sum of electronic and zero-point Energies=           -427.594232
 Sum of electronic and thermal Energies=              -427.583758
 Sum of electronic and thermal Enthalpies=            -427.582814
 Sum of electronic and thermal Free Energies=         -427.629688

                     E (Thermal)             CV                S
                      KCal/Mol        Cal/Mol-Kelvin    Cal/Mol-Kelvin
 Total                  155.311             40.472             98.654
 Electronic               0.000              0.000              0.000
 Translational            0.889              2.981             40.724
 Rotational               0.889              2.981             29.733
 Vibrational            153.534             34.511             28.198
 Vibration     1          0.598              1.968              4.146
 Vibration     2          0.601              1.958              3.701
 Vibration     3          0.613              1.919              2.888
 Vibration     4          0.633              1.854              2.230
 Vibration     5          0.651              1.797              1.889
 Vibration     6          0.661              1.767              1.751
 Vibration     7          0.675              1.725              1.583
 Vibration     8          0.694              1.670              1.406
 Vibration     9          0.707              1.630              1.297
 Vibration    10          0.753              1.506              1.026
 Vibration    11          0.779              1.437              0.909
 Vibration    12          0.792              1.403              0.856
 Vibration    13          0.814              1.347              0.777
 Vibration    14          0.864              1.230              0.636
 Vibration    15          0.932              1.084              0.493

 Normal termination of Gaussian 16 at Wed Feb 21 19:40:40 2024.
