 Gaussian 16, Revision A.03,
 Gaussian 16:  EM64M-G16RevA.03 25-Dec-2016

 ---------------------
 # freq b3lyp/6-31g(d)
 ---------------------

 ---------
 good luck
 ---------
 Symbolic Z-matrix:
 Charge =  0 Multiplicity = 1

                         Standard orientation:
 ---------------------------------------------------------------------
 Center     Atomic      Atomic             Coordinates (Angstroms)
 Number     Number       Type             X           Y           Z
 ---------------------------------------------------------------------
      1          8           0        0.173271    2.204682   -0.010987
      2          6           0        0.601595    1.093439   -0.265618
      3          6           0       -0.304321   -0.133180   -0.434347
      4          6           0       -1.802005    0.192255   -0.218258
      5          6           0       -2.707248   -0.880115   -0.843649
      6          6           0       -2.171392    0.431420    1.254527
      7          6           0        0.248664   -1.313314    0.405910
      8          6           0        1.724093   -1.603973    0.097818
      9          6           0        2.594940   -0.366317    0.346932
     10          6           0        2.092647    0.841066   -0.468787
     11          1           0       -0.178742   -0.425163   -1.492394
     12          1           0       -1.981826    1.135090   -0.749915
     13          1           0       -2.482264   -1.027957   -1.907274
     14          1           0       -3.761040   -0.588415   -0.764243
     15          1           0       -2.600554   -1.849822   -0.341433
     16          1           0       -2.083966   -0.484539    1.851972
     17          1           0       -1.535790    1.201361    1.701137
     18          1           0       -3.211268    0.770366    1.331589
     19          1           0        0.147035   -1.081395    1.474360
     20          1           0       -0.358945   -2.207135    0.221654
     21          1           0        2.075545   -2.441725    0.712971
     22          1           0        1.826284   -1.920690   -0.950721
     23          1           0        3.643402   -0.570132    0.098234
     24          1           0        2.569857   -0.114041    1.416235
     25          1           0        2.632458    1.760016   -0.222064
     26          1           0        2.251809    0.639043   -1.539385
 ---------------------------------------------------------------------

 SCF Done:  E(RB3LYP) =  -427.831415669     A.U. after   13 cycles

 The electronic state is 1-A.
 Alpha  occ. eigenvalues --  -19.13411 -10.26741 -10.19347 -10.19338 -10.19036
 Alpha  occ. eigenvalues --  -10.18991 -10.18989 -10.18454 -10.17179 -10.16462
 Alpha  occ. eigenvalues --   -1.03265  -0.83570  -0.79411  -0.73881  -0.71654
 Alpha  occ. eigenvalues --   -0.67684  -0.63327  -0.59083  -0.56368  -0.51995
 Alpha  occ. eigenvalues --   -0.47133  -0.46208  -0.45519  -0.44494  -0.43338
 Alpha  occ. eigenvalues --   -0.41816  -0.40301  -0.40246  -0.38582  -0.37392
 Alpha  occ. eigenvalues --   -0.36228  -0.35723  -0.34990  -0.33341  -0.33154
 Alpha  occ. eigenvalues --   -0.32229  -0.31512  -0.30497  -0.23411
 Alpha virt. eigenvalues --   -0.01262   0.08492   0.09790   0.10485   0.12664
 Alpha virt. eigenvalues --    0.13769   0.14469   0.14849   0.15431   0.16756
 Alpha virt. eigenvalues --    0.16924   0.17869   0.18144   0.18507   0.19063

 Mulliken charges:
               1
     1  O   -0.453208
     2  C    0.446949
     3  C   -0.170434
     4  C   -0.061455
     5  C   -0.453499
     6  C   -0.456881
     7  C   -0.275943
     8  C   -0.267022
     9  C   -0.267587
    10  C   -0.341648
    11  H    0.136506
    12  H    0.143922
    13  H    0.136549
    14  H    0.144642
    15  H    0.139262
    16  H    0.134039
    17  H    0.163745
    18  H    0.139957
    19  H    0.145608
    20  H    0.143649
    21  H    0.139306
    22  H    0.132049
    23  H    0.142286
    24  H    0.144035
    25  H    0.162262
    26  H    0.152910
 Sum of Mulliken charges =  -0.00000

 Dipole moment (field-independent basis, Debye):
    X=              1.0478    Y=             -2.5103    Z=             -0.4953  Tot=              2.7649
 Quadrupole moment (field-independent basis, Debye-Ang):
   XX=            -60.2118   YY=            -69.8987   ZZ=            -61.6456
   XY=             -0.0657   XZ=             -0.1829   YZ=             -0.6667

  Exact polarizability: 105.681  -1.886  92.625  -0.582   1.414  80.555
 Approx polarizability: 129.319  -5.959 139.628  -2.064   4.249 122.025

                      1                      2                      3
                      A                      A                      A
 Frequencies --     68.8769                83.8458               134.3913
 Red. masses --      3.0460                 2.9328                 2.6865
 Frc consts  --      0.0085                 0.0121                 0.0286
 IR Inten    --      0.6457                 1.1584                 0.9356

                      4                      5                      6
                      A                      A                      A
 Frequencies --    195.8063               222.2959               249.2769
 Red. masses --      3.1268                 1.3727                 1.5557
 Frc consts  --      0.0706                 0.0400                 0.0570
 IR Inten    --      3.3497                 0.2252                 0.0340

                      7                      8                      9
                      A                      A                      A
 Frequencies --    258.6254               288.1127               312.2406
 Red. masses --      1.1227                 3.2493                 1.7798
 Frc consts  --      0.0442                 0.1589                 0.1022
 IR Inten    --      0.4115                 1.4501                 0.0638

                     10                     11                     12
                      A                      A                      A
 Frequencies --    373.5671               409.1225               429.0444
 Red. masses --      3.4482                 2.5494                 2.8958
 Frc consts  --      0.2835                 0.2514                 0.3141
 IR Inten    --      2.1191                 2.0607                 0.9399

                     13                     14                     15
                      A                      A                      A
 Frequencies --    469.7313               539.1869               591.6267
 Red. masses --      2.1259                 2.7316                 2.9351
 Frc consts  --      0.2764                 0.4679                 0.6053
 IR Inten    --      0.4173                 6.2333                 2.9827

                     16                     17                     18
                      A                      A                      A
 Frequencies --    664.7783               746.3282               815.7511
 Red. masses --      2.9241                 2.3156                 2.9957
 Frc consts  --      0.7614                 0.7599                 1.1745
 IR Inten    --      2.1543                 4.1510                 2.4358

                     19                     20                     21
                      A                      A                      A
 Frequencies --    850.5092               866.0857               906.3440
 Red. masses --      1.6295                 2.6057                 1.5682
 Frc consts  --      0.6945                 1.1516                 0.7590
 IR Inten    --      6.4359                 0.5452                 5.0367

                     22                     23                     24
                      A                      A                      A
 Frequencies --    923.5666               940.2155               957.4187
 Red. masses --      1.8768                 1.2104                 2.2147
 Frc consts  --      0.9432                 0.6304                 1.1961
 IR Inten    --      1.4240                 1.9932                 0.6153

                     25                     26                     27
                      A                      A                      A
 Frequencies --    978.5714              1021.9374              1033.6699
 Red. masses --      1.4891                 1.8593                 1.7232
 Frc consts  --      0.8402                 1.1441                 1.0848
 IR Inten    --      0.2913                 8.5043                 2.3376

                     28                     29                     30
                      A                      A                      A
 Frequencies --   1076.3797              1086.0932              1089.7817
 Red. masses --      2.3073                 1.8633                 1.1285
 Frc consts  --      1.5750                 1.2950                 0.7897
 IR Inten    --     16.7542                 1.6953                 1.2604

                     31                     32                     33
                      A                      A                      A
 Frequencies --   1148.6900              1156.4710              1185.1019
 Red. masses --      1.7392                 2.2730                 2.1646
 Frc consts  --      1.3521                 1.7911                 1.7912
 IR Inten    --     25.5717                 2.9472                 9.3485

                     34                     35                     36
                      A                      A                      A
 Frequencies --   1219.2076              1242.4148              1275.5867
 Red. masses --      1.9074                 1.5050                 1.4016
 Frc consts  --      1.6705                 1.3687                 1.3437
 IR Inten    --      3.6256                 8.5325                 1.4253

                     37                     38                     39
                      A                      A                      A
 Frequencies --   1292.1220              1321.6428              1336.5704
 Red. masses --      1.2818                 1.2789                 1.3683
 Frc consts  --      1.2609                 1.3162                 1.4402
 IR Inten    --      1.8244                 1.9165                 3.9723

                     40                     41                     42
                      A                      A                      A
 Frequencies --   1359.8786              1374.3533              1386.8970
 Red. masses --      1.3652                 1.3869                 1.4461
 Frc consts  --      1.4874                 1.5435                 1.6389
 IR Inten    --      4.2611                 2.2347                11.5395

                     43                     44                     45
                      A                      A                      A
 Frequencies --   1397.4684              1399.7928              1403.9139
 Red. masses --      1.3924                 1.5100                 1.5482
 Frc consts  --      1.6021                 1.7432                 1.7978
 IR Inten    --      4.7153                 1.6925                 4.8441

                     46                     47                     48
                      A                      A                      A
 Frequencies --   1429.5487              1449.1315              1496.4749
 Red. masses --      1.2744                 1.2341                 1.0893
 Frc consts  --      1.5344                 1.5270                 1.4373
 IR Inten    --      8.4538                 4.2674                 6.2563

                     49                     50                     51
                      A                      A                      A
 Frequencies --   1518.4187              1519.4366              1520.5450
 Red. masses --      1.0776                 1.0807                 1.0578
 Frc consts  --      1.4638                 1.4700                 1.4410
 IR Inten    --      1.7529                 6.1901                 1.8432

                     52                     53                     54
                      A                      A                      A
 Frequencies --   1528.0954              1534.9689              1538.9491
 Red. masses --      1.0601                 1.0872                 1.0503
 Frc consts  --      1.4585                 1.5093                 1.4657
 IR Inten    --      1.6673                 2.4603                 3.6797

                     55                     56                     57
                      A                      A                      A
 Frequencies --   1543.2379              1804.4541              2971.0300
 Red. masses --      1.0510                11.4324                 1.0804
 Frc consts  --      1.4747                21.9321                 5.6187
 IR Inten    --      8.0228               152.2909                16.0654

                     58                     59                     60
                      A                      A                      A
 Frequencies --   3021.2863              3024.4367              3037.2076
 Red. masses --      1.0696                 1.0683                 1.0361
 Frc consts  --      5.7526                 5.7576                 5.6314
 IR Inten    --      8.9361                22.3051                21.8967

                     61                     62                     63
                      A                      A                      A
 Frequencies --   3037.5528              3042.0380              3049.1266
 Red. masses --      1.0620                 1.0564                 1.0513
 Frc consts  --      5.7734                 5.7598                 5.7588
 IR Inten    --     33.7294                 2.5388                32.1064

                     64                     65                     66
                      A                      A                      A
 Frequencies --   3052.4466              3076.6932              3082.1518
 Red. masses --      1.0759                 1.0932                 1.1016
 Frc consts  --      5.9061                 6.0970                 6.1657
 IR Inten    --     13.7056                49.4707                38.0391

                     67                     68                     69
                      A                      A                      A
 Frequencies --   3088.3793              3100.4731              3103.9510
 Red. masses --      1.1036                 1.1018                 1.1016
 Frc consts  --      6.2020                 6.2403                 6.2530
 IR Inten    --     55.8175                13.0707                32.7940

                     70                     71                     72
                      A                      A                      A
 Frequencies --   3108.9264              3116.7661              3137.6894
 Red. masses --      1.1006                 1.0944                 1.1002
 Frc consts  --      6.2675                 6.2638                 6.3819
 IR Inten    --     77.9837                20.7688                19.1061

 - Thermochemistry -
 -------------------
 Temperature   298.150 Kelvin.  Pressure   1.00000 Atm.
 Atom     1 has atomic number  8 and mass  15.99491

 Molecular mass:   140.12012 amu.
 Principal axes and moments of inertia in atomic units:
                           1         2         3
     Eigenvalues --   909.405511815.089712290.67441
           X            1.00000   0.00006  -0.00177
           Y           -0.00005   0.99995   0.01016
           Z            0.00177  -0.01016   0.99995
 This molecule is an asymmetric top.
 Rotational symmetry number  1.
 Warning -- assumption of classical behavior for rotation
           may cause significant error
 Rotational temperatures (Kelvin)      0.09524     0.04772     0.03781
 Rotational constants (GHZ):           1.98453     0.99430     0.78786
 Zero-point vibrational energy     622158.1 (Joules/Mol)
                                  148.69935 (Kcal/Mol)
 Warning -- explicit consideration of  15 degrees of freedom as
           vibrations may cause significant error
 Vibrational temperatures:     99.10   120.64   193.36   281.72   319.83
          (Kelvin)            358.65   372.10   414.53   449.24   537.48
                              588.64   617.30   675.84   775.77   851.22
                              956.47  1073.80  1173.68  1223.69  1246.10
                             1304.03  1328.81  1352.76  1377.51  1407.95
                             1470.34  1487.22  1548.67  1562.65  1567.95
                             1652.71  1663.90  1705.10  1754.17  1787.56
                             1835.28  1859.08  1901.55  1923.03  1956.56
                             1977.39  1995.44  2010.65  2013.99  2019.92
                             2056.80  2084.98  2153.09  2184.67  2186.13
                             2187.73  2198.59  2208.48  2214.20  2220.38
                             2596.21  4274.65  4346.96  4351.49  4369.86
                             4370.36  4376.81  4387.01  4391.79  4426.68
                             4434.53  4443.49  4460.89  4465.89  4473.05
                             4484.33  4514.44

 Zero-point correction=                           0.236967 (Hartree/Particle)
 Thermal correction to Energy=                    0.247486
 Thermal correction to Enthalpy=                  0.248430
 Thermal correction to Gibbs Free Energy=         0.201423
 Sum of electronic and zero-point Energies=           -427.594448
 Sum of electronic and thermal Energies=              -427.583930
 Sum of electronic and thermal Enthalpies=            -427.582985
 Sum of electronic and thermal Free Energies=         -427.629993

                     E (Thermal)             CV                S
                      KCal/Mol        Cal/Mol-Kelvin    Cal/Mol-Kelvin
 Total                  155.300             40.503             98.936
 Electronic               0.000              0.000              0.000
 Translational            0.889              2.981             40.724
 Rotational               0.889              2.981             29.715
 Vibrational            153.522             34.541             28.497
 Vibration     1          0.598              1.969              4.185
 Vibration     2          0.601              1.960              3.799
 Vibration     3          0.613              1.919              2.882
 Vibration     4          0.636              1.846              2.172
 Vibration     5          0.648              1.807              1.940
 Vibration     6          0.662              1.764              1.736
 Vibration     7          0.667              1.748              1.671
 Vibration     8          0.685              1.696              1.485
 Vibration     9          0.701              1.650              1.350
 Vibration    10          0.745              1.526              1.065
 Vibration    11          0.773              1.450              0.930
 Vibration    12          0.790              1.407              0.862
 Vibration    13          0.827              1.317              0.738
 Vibration    14          0.894              1.163              0.567
 Vibration    15          0.949              1.050              0.464

 Normal termination of Gaussian 16 at Wed Feb 21 19:36:16 2024.
