 Gaussian 16, Revision A.03,
 Gaussian 16:  EM64M-G16RevA.03 25-Dec-2016

 ---------------------
 # freq b3lyp/6-31g(d)
 ---------------------

 ---------
 good luck
 ---------
 Symbolic Z-matrix:
 Charge =  0 Multiplicity = 1

                         Standard orientation:
 ---------------------------------------------------------------------
 Center     Atomic      Atomic             Coordinates (Angstroms)
 Number     Number       Type             X           Y           Z
 ---------------------------------------------------------------------
      1          8           0        2.578367    0.043655   -0.222375
      2          6           0        1.397544   -0.228828   -0.241520
      3          6           0        0.234071    0.695899    0.140485
      4          6           0        0.586549    2.172401    0.130951
      5          6           0       -0.864189    0.158787   -0.831263
      6          6           0       -2.252498    0.788034   -0.717095
      7          6           0       -0.254039    0.126820    1.515830
      8          6           0       -0.930367   -1.230263    1.152789
      9          6           0       -0.727437   -1.321093   -0.379588
     10          6           0        0.770540   -1.574436   -0.645087
     11          1           0        0.863596    2.506451   -0.875536
     12          1           0        1.445100    2.363865    0.783344
     13          1           0       -0.252806    2.786165    0.477089
     14          1           0       -0.525056    0.267564   -1.872282
     15          1           0       -2.230752    1.841067   -1.020109
     16          1           0       -2.961117    0.270739   -1.375124
     17          1           0       -2.656225    0.745365    0.299724
     18          1           0       -0.965409    0.826974    1.967489
     19          1           0        0.575853    0.017986    2.222034
     20          1           0       -0.475752   -2.080385    1.672713
     21          1           0       -1.993796   -1.227718    1.413198
     22          1           0       -1.395209   -2.028947   -0.879838
     23          1           0        1.208513   -2.403822   -0.078584
     24          1           0        0.975077   -1.758465   -1.708132
 ---------------------------------------------------------------------

 SCF Done:  E(RB3LYP) =  -426.613437933     A.U. after   13 cycles

 The electronic state is 1-A.
 Alpha  occ. eigenvalues --  -19.13299 -10.26402 -10.19664 -10.19529 -10.19466
 Alpha  occ. eigenvalues --  -10.19052 -10.18827 -10.18736 -10.18196 -10.17427
 Alpha  occ. eigenvalues --   -1.03190  -0.87922  -0.76135  -0.74412  -0.73363
 Alpha  occ. eigenvalues --   -0.66516  -0.64631  -0.58401  -0.54978  -0.50481
 Alpha  occ. eigenvalues --   -0.49071  -0.47562  -0.45383  -0.43367  -0.41558
 Alpha  occ. eigenvalues --   -0.40493  -0.39963  -0.39568  -0.38904  -0.37765
 Alpha  occ. eigenvalues --   -0.35622  -0.34967  -0.34589  -0.33491  -0.32493
 Alpha  occ. eigenvalues --   -0.31201  -0.30137  -0.22947
 Alpha virt. eigenvalues --   -0.00854   0.07284   0.10228   0.11025   0.12373
 Alpha virt. eigenvalues --    0.13508   0.14570   0.15137   0.15968   0.16432
 Alpha virt. eigenvalues --    0.16699   0.18432   0.18628   0.19590   0.20043

 Mulliken charges:
               1
     1  O   -0.461949
     2  C    0.444483
     3  C    0.024870
     4  C   -0.473136
     5  C   -0.098509
     6  C   -0.460843
     7  C   -0.297321
     8  C   -0.276806
     9  C   -0.111688
    10  C   -0.352510
    11  H    0.148580
    12  H    0.164163
    13  H    0.139134
    14  H    0.126051
    15  H    0.151956
    16  H    0.147512
    17  H    0.147178
    18  H    0.148577
    19  H    0.153842
    20  H    0.140214
    21  H    0.142878
    22  H    0.121110
    23  H    0.163790
    24  H    0.168425
 Sum of Mulliken charges =  -0.00000

 Dipole moment (field-independent basis, Debye):
    X=             -2.9388    Y=             -0.5646    Z=              0.0423  Tot=              2.9928
 Quadrupole moment (field-independent basis, Debye-Ang):
   XX=            -70.4466   YY=            -59.5624   ZZ=            -59.3765
   XY=             -1.1028   XZ=              0.7106   YZ=              0.3104

  Exact polarizability:  94.458   0.436  90.512   0.143   0.921  80.905
 Approx polarizability: 139.676   2.308 123.416  -0.686   1.447 120.185

                      1                      2                      3
                      A                      A                      A
 Frequencies --    107.0186               183.6948               193.0702
 Red. masses --      4.4304                 1.0416                 1.1737
 Frc consts  --      0.0299                 0.0207                 0.0258
 IR Inten    --      3.6717                 0.1654                 0.1199

                      4                      5                      6
                      A                      A                      A
 Frequencies --    222.7098               231.4867               255.6747
 Red. masses --      2.0067                 2.5359                 1.9733
 Frc consts  --      0.0586                 0.0801                 0.0760
 IR Inten    --      0.3327                 0.6319                 0.3000

                      7                      8                      9
                      A                      A                      A
 Frequencies --    286.2858               326.2265               382.3641
 Red. masses --      3.0199                 2.4780                 2.0214
 Frc consts  --      0.1458                 0.1554                 0.1741
 IR Inten    --      2.8872                 0.3686                 0.6205

                     10                     11                     12
                      A                      A                      A
 Frequencies --    466.5766               516.4334               548.7861
 Red. masses --      3.9435                 3.6213                 3.8297
 Frc consts  --      0.5058                 0.5690                 0.6795
 IR Inten    --      2.6294                 5.3396                 1.7216

                     13                     14                     15
                      A                      A                      A
 Frequencies --    589.2851               625.9605               698.9890
 Red. masses --      2.6384                 3.5154                 2.7502
 Frc consts  --      0.5398                 0.8116                 0.7917
 IR Inten    --      2.0088                 0.2747                 3.1410

                     16                     17                     18
                      A                      A                      A
 Frequencies --    738.6447               793.1388               838.7223
 Red. masses --      3.5046                 2.1217                 1.5931
 Frc consts  --      1.1266                 0.7864                 0.6603
 IR Inten    --      2.3243                 4.0218                 0.0351

                     19                     20                     21
                      A                      A                      A
 Frequencies --    862.3302               877.9473               933.9044
 Red. masses --      2.2719                 2.1662                 2.5417
 Frc consts  --      0.9954                 0.9837                 1.3061
 IR Inten    --      2.2782                 0.1652                 0.5452

                     22                     23                     24
                      A                      A                      A
 Frequencies --    944.8809               959.0056              1001.3255
 Red. masses --      1.7218                 2.2433                 1.9499
 Frc consts  --      0.9057                 1.2156                 1.1519
 IR Inten    --      1.6733                 2.9788                 0.1217

                     25                     26                     27
                      A                      A                      A
 Frequencies --   1041.3649              1044.6577              1064.2892
 Red. masses --      2.0061                 1.6192                 1.7293
 Frc consts  --      1.2818                 1.0411                 1.1541
 IR Inten    --     25.1054                10.0323                12.6040

                     28                     29                     30
                      A                      A                      A
 Frequencies --   1084.8669              1107.6272              1124.2835
 Red. masses --      1.4599                 1.5238                 1.6526
 Frc consts  --      1.0123                 1.1015                 1.2308
 IR Inten    --      6.6745                 2.9982                 2.2536

                     31                     32                     33
                      A                      A                      A
 Frequencies --   1167.0935              1183.6978              1201.7532
 Red. masses --      1.6231                 2.0883                 1.7320
 Frc consts  --      1.3026                 1.7239                 1.4737
 IR Inten    --      0.4750                 1.3218                 4.4633

                     34                     35                     36
                      A                      A                      A
 Frequencies --   1226.2881              1264.5766              1274.8801
 Red. masses --      1.7074                 1.6381                 1.6470
 Frc consts  --      1.5128                 1.5434                 1.5772
 IR Inten    --      3.3272                 0.6911                 2.0344

                     37                     38                     39
                      A                      A                      A
 Frequencies --   1287.7789              1308.2551              1336.7862
 Red. masses --      1.3979                 1.6214                 1.7006
 Frc consts  --      1.3658                 1.6350                 1.7905
 IR Inten    --      0.1581                 0.5202                10.9934

                     40                     41                     42
                      A                      A                      A
 Frequencies --   1348.4197              1369.0686              1414.8186
 Red. masses --      1.5021                 1.9678                 1.3887
 Frc consts  --      1.6091                 2.1731                 1.6378
 IR Inten    --      1.8445                 1.3107                 1.6351

                     43                     44                     45
                      A                      A                      A
 Frequencies --   1439.0124              1443.4900              1482.1876
 Red. masses --      1.2921                 1.2503                 1.0923
 Frc consts  --      1.5764                 1.5349                 1.4139
 IR Inten    --      4.7084                 3.3096                 7.9254

                     46                     47                     48
                      A                      A                      A
 Frequencies --   1516.2516              1520.2606              1523.4227
 Red. masses --      1.0610                 1.0511                 1.0510
 Frc consts  --      1.4372                 1.4313                 1.4371
 IR Inten    --      2.5844                 7.5470                 4.4057

                     49                     50                     51
                      A                      A                      A
 Frequencies --   1530.5726              1537.0691              1547.8161
 Red. masses --      1.0524                 1.0591                 1.0897
 Frc consts  --      1.4526                 1.4742                 1.5381
 IR Inten    --      0.5853                 1.3099                 7.0581

                     52                     53                     54
                      A                      A                      A
 Frequencies --   1842.8922              3021.5848              3048.8438
 Red. masses --     12.5024                 1.0838                 1.0362
 Frc consts  --     25.0174                 5.8300                 5.6748
 IR Inten    --    218.3091                26.7754                14.6137

                     55                     56                     57
                      A                      A                      A
 Frequencies --   3050.7837              3054.4984              3062.7425
 Red. masses --      1.0369                 1.0632                 1.0595
 Frc consts  --      5.6859                 5.8444                 5.8558
 IR Inten    --     32.6331                15.6857                28.3514

                     58                     59                     60
                      A                      A                      A
 Frequencies --   3071.5098              3094.8495              3101.0751
 Red. masses --      1.0619                 1.1055                 1.0892
 Frc consts  --      5.9024                 6.2385                 6.1712
 IR Inten    --     30.6736                 6.1428                30.4644

                     61                     62                     63
                      A                      A                      A
 Frequencies --   3103.2989              3108.6078              3113.1742
 Red. masses --      1.1009                 1.1015                 1.1044
 Frc consts  --      6.2468                 6.2715                 6.3063
 IR Inten    --      7.0018                31.5316                44.3647

                     64                     65                     66
                      A                      A                      A
 Frequencies --   3114.8203              3123.2975              3124.6776
 Red. masses --      1.1030                 1.1014                 1.1011
 Frc consts  --      6.3048                 6.3304                 6.3339
 IR Inten    --     35.3283                18.8998                31.6026

 - Thermochemistry -
 -------------------
 Temperature   298.150 Kelvin.  Pressure   1.00000 Atm.
 Atom     1 has atomic number  8 and mass  15.99491

 Molecular mass:   138.10447 amu.
 Principal axes and moments of inertia in atomic units:
                           1         2         3
     Eigenvalues --   984.388321267.346331592.91361
           X            0.99978  -0.01775   0.01142
           Y            0.01776   0.99984  -0.00122
           Z           -0.01139   0.00142   0.99993
 This molecule is an asymmetric top.
 Rotational symmetry number  1.
 Warning -- assumption of classical behavior for rotation
           may cause significant error
 Rotational temperatures (Kelvin)      0.08799     0.06834     0.05437
 Rotational constants (GHZ):           1.83336     1.42403     1.13298
 Zero-point vibrational energy     562314.9 (Joules/Mol)
                                  134.39648 (Kcal/Mol)
 Warning -- explicit consideration of  13 degrees of freedom as
           vibrations may cause significant error
 Vibrational temperatures:    153.98   264.30   277.78   320.43   333.06
          (Kelvin)            367.86   411.90   469.37   550.14   671.30
                              743.03   789.58   847.85   900.62  1005.69
                             1062.74  1141.15  1206.73  1240.70  1263.17
                             1343.68  1359.47  1379.80  1440.68  1498.29
                             1503.03  1531.27  1560.88  1593.63  1617.59
                             1679.19  1703.08  1729.05  1764.36  1819.44
                             1834.27  1852.83  1882.29  1923.34  1940.08
                             1969.78  2035.61  2070.42  2076.86  2132.54
                             2181.55  2187.32  2191.87  2202.15  2211.50
                             2226.96  2651.51  4347.39  4386.61  4389.40
                             4394.74  4406.60  4419.22  4452.80  4461.76
                             4464.95  4472.59  4479.16  4481.53  4493.73
                             4495.71

 Zero-point correction=                           0.214174 (Hartree/Particle)
 Thermal correction to Energy=                    0.223536
 Thermal correction to Enthalpy=                  0.224480
 Thermal correction to Gibbs Free Energy=         0.180642
 Sum of electronic and zero-point Energies=           -426.399264
 Sum of electronic and thermal Energies=              -426.389902
 Sum of electronic and thermal Enthalpies=            -426.388958
 Sum of electronic and thermal Free Energies=         -426.432796

                     E (Thermal)             CV                S
                      KCal/Mol        Cal/Mol-Kelvin    Cal/Mol-Kelvin
 Total                  140.271             37.564             92.264
 Electronic               0.000              0.000              0.000
 Translational            0.889              2.981             40.680
 Rotational               0.889              2.981             29.076
 Vibrational            138.493             31.602             22.507
 Vibration     1          0.606              1.944              3.322
 Vibration     2          0.631              1.862              2.291
 Vibration     3          0.635              1.849              2.198
 Vibration     4          0.648              1.806              1.937
 Vibration     5          0.653              1.793              1.867
 Vibration     6          0.666              1.753              1.691
 Vibration     7          0.684              1.699              1.496
 Vibration     8          0.710              1.623              1.279
 Vibration     9          0.752              1.508              1.030
 Vibration    10          0.824              1.324              0.747
 Vibration    11          0.871              1.214              0.618
 Vibration    12          0.904              1.142              0.547
 Vibration    13          0.947              1.055              0.468

 Normal termination of Gaussian 16 at Wed Feb 21 19:28:37 2024.
