 Gaussian 16, Revision A.03,
 Gaussian 16:  EM64M-G16RevA.03 25-Dec-2016

 ---------------------
 # freq b3lyp/6-31g(d)
 ---------------------

 ---------
 good luck
 ---------
 Symbolic Z-matrix:
 Charge =  0 Multiplicity = 1

                         Standard orientation:
 ---------------------------------------------------------------------
 Center     Atomic      Atomic             Coordinates (Angstroms)
 Number     Number       Type             X           Y           Z
 ---------------------------------------------------------------------
      1          8           0       -2.336344    2.070177    0.324793
      2          6           0       -1.292361    1.622437   -0.114667
      3          6           0       -1.193180    0.266085   -0.813995
      4          6           0       -2.522982   -0.509210   -0.829140
      5          6           0       -2.996444   -1.070814    0.520159
      6          6           0       -4.361679   -1.758324    0.411833
      7          6           0        0.009167   -0.542126   -0.263939
      8          6           0        1.340874    0.236199   -0.336274
      9          6           0        2.604419   -0.614781    0.042598
     10          6           0        2.552946   -1.129788    1.495815
     11          6           0        2.722416   -1.825657   -0.909316
     12          6           0        3.879927    0.238086   -0.136329
     13          6           0        1.187093    1.539887    0.475673
     14          6           0        0.013833    2.400606   -0.033551
     15          1           0       -0.944712    0.513620   -1.861067
     16          1           0       -3.299564    0.159288   -1.220422
     17          1           0       -2.429034   -1.335928   -1.548110
     18          1           0       -3.055554   -0.254456    1.248224
     19          1           0       -2.263648   -1.791283    0.907139
     20          1           0       -4.333888   -2.591053   -0.302326
     21          1           0       -4.683585   -2.160524    1.379240
     22          1           0       -5.130809   -1.055087    0.070729
     23          1           0       -0.191397   -0.820584    0.778252
     24          1           0        0.069229   -1.477877   -0.830013
     25          1           0        1.488920    0.528915   -1.389731
     26          1           0        3.454869   -1.711292    1.722116
     27          1           0        2.504401   -0.309292    2.220491
     28          1           0        1.691608   -1.784534    1.668755
     29          1           0        1.911919   -2.548010   -0.768877
     30          1           0        3.664338   -2.358018   -0.731619
     31          1           0        2.714132   -1.508668   -1.959983
     32          1           0        4.773656   -0.381916    0.001636
     33          1           0        3.939752    1.056496    0.588370
     34          1           0        3.930736    0.673212   -1.142612
     35          1           0        1.015325    1.297965    1.533167
     36          1           0        2.100505    2.141580    0.437520
     37          1           0       -0.148093    3.281093    0.595569
     38          1           0        0.247477    2.759331   -1.048001
 ---------------------------------------------------------------------

 SCF Done:  E(RB3LYP) =  -585.080884487     A.U. after   14 cycles

 The electronic state is 1-A.
 Alpha  occ. eigenvalues --  -19.13271 -10.26574 -10.20199 -10.19385 -10.19346
 Alpha  occ. eigenvalues --  -10.18967 -10.18887 -10.18690 -10.17574 -10.17518
 Alpha  occ. eigenvalues --  -10.17503 -10.17500 -10.17140 -10.16662  -1.03113
 Alpha  occ. eigenvalues --   -0.84579  -0.80695  -0.78254  -0.74513  -0.71612
 Alpha  occ. eigenvalues --   -0.68674  -0.68633  -0.66379  -0.61588  -0.60169
 Alpha  occ. eigenvalues --   -0.57671  -0.53127  -0.51860  -0.47291  -0.46906
 Alpha  occ. eigenvalues --   -0.45375  -0.44866  -0.44360  -0.43674  -0.42789
 Alpha  occ. eigenvalues --   -0.42279  -0.41433  -0.40440  -0.38950  -0.38422
 Alpha  occ. eigenvalues --   -0.37679  -0.37485  -0.36542  -0.36054  -0.35784
 Alpha  occ. eigenvalues --   -0.34851  -0.34724  -0.33884  -0.33115  -0.31945
 Alpha  occ. eigenvalues --   -0.31750  -0.31269  -0.30307  -0.29753  -0.23267
 Alpha virt. eigenvalues --   -0.01191   0.07608   0.09105   0.09941   0.11158
 Alpha virt. eigenvalues --    0.12006   0.12332   0.12752   0.13228   0.14562
 Alpha virt. eigenvalues --    0.14875   0.15351   0.15797   0.16223   0.16642

 Mulliken charges:
               1
     1  O   -0.456414
     2  C    0.455281
     3  C   -0.182258
     4  C   -0.246186
     5  C   -0.258915
     6  C   -0.443487
     7  C   -0.289093
     8  C   -0.075911
     9  C    0.103036
    10  C   -0.456609
    11  C   -0.452267
    12  C   -0.452535
    13  C   -0.285859
    14  C   -0.347776
    15  H    0.140560
    16  H    0.145920
    17  H    0.120809
    18  H    0.157350
    19  H    0.125816
    20  H    0.136222
    21  H    0.140250
    22  H    0.147125
    23  H    0.146846
    24  H    0.141649
    25  H    0.109923
    26  H    0.140750
    27  H    0.143647
    28  H    0.144506
    29  H    0.144820
    30  H    0.140079
    31  H    0.137481
    32  H    0.140212
    33  H    0.144447
    34  H    0.137435
    35  H    0.143902
    36  H    0.144470
    37  H    0.161332
    38  H    0.153442
 Sum of Mulliken charges =  -0.00000

 Dipole moment (field-independent basis, Debye):
    X=              2.6297    Y=             -1.0728    Z=             -0.8702  Tot=              2.9704
 Quadrupole moment (field-independent basis, Debye-Ang):
   XX=            -96.2615   YY=            -92.2578   ZZ=            -88.4537
   XY=              5.7670   XZ=              1.9744   YZ=             -1.8102

  Exact polarizability: 158.886  -0.616 132.296  -1.826   1.739 115.946
 Approx polarizability: 198.510  -6.803 185.347  -6.685   3.588 181.105

                      1                      2                      3
                      A                      A                      A
 Frequencies --     28.5528                55.6203                66.1305
 Red. masses --      2.6307                 3.9633                 2.0475
 Frc consts  --      0.0013                 0.0072                 0.0053
 IR Inten    --      0.0523                 1.5564                 0.2977

                      4                      5                      6
                      A                      A                      A
 Frequencies --     75.4123               104.5767               157.0416
 Red. masses --      3.0728                 2.4146                 2.5830
 Frc consts  --      0.0103                 0.0156                 0.0375
 IR Inten    --      0.3697                 0.9463                 0.9520

                      7                      8                      9
                      A                      A                      A
 Frequencies --    173.1062               197.1933               236.5569
 Red. masses --      2.7031                 1.8974                 1.4244
 Frc consts  --      0.0477                 0.0435                 0.0470
 IR Inten    --      0.4363                 0.5373                 0.3014

                     10                     11                     12
                      A                      A                      A
 Frequencies --    247.9593               255.8718               266.1948
 Red. masses --      1.1887                 1.2527                 1.0784
 Frc consts  --      0.0431                 0.0483                 0.0450
 IR Inten    --      0.3167                 0.0706                 0.0514

                     13                     14                     15
                      A                      A                      A
 Frequencies --    268.9229               284.5017               290.8867
 Red. masses --      2.5272                 2.7634                 2.5673
 Frc consts  --      0.1077                 0.1318                 0.1280
 IR Inten    --      0.1016                 0.2238                 2.7512

                     16                     17                     18
                      A                      A                      A
 Frequencies --    334.3931               340.7453               370.0797
 Red. masses --      2.4470                 2.0735                 2.3312
 Frc consts  --      0.1612                 0.1418                 0.1881
 IR Inten    --      0.3721                 0.2314                 1.3326

                     19                     20                     21
                      A                      A                      A
 Frequencies --    393.0892               431.2516               445.7839
 Red. masses --      2.2289                 2.9780                 2.5419
 Frc consts  --      0.2029                 0.3263                 0.2976
 IR Inten    --      0.3585                 3.0349                 0.3080

                     22                     23                     24
                      A                      A                      A
 Frequencies --    474.1807               523.3226               530.9230
 Red. masses --      2.6407                 2.8664                 2.4405
 Frc consts  --      0.3498                 0.4625                 0.4053
 IR Inten    --      2.1200                 4.6785                 0.5207

                     25                     26                     27
                      A                      A                      A
 Frequencies --    644.7069               678.3393               722.8843
 Red. masses --      3.5762                 3.8161                 1.9109
 Frc consts  --      0.8758                 1.0346                 0.5883
 IR Inten    --      0.5099                 1.9278                 6.0450

                     28                     29                     30
                      A                      A                      A
 Frequencies --    755.0293               774.5600               836.3098
 Red. masses --      1.3402                 2.7065                 1.8645
 Frc consts  --      0.4501                 0.9567                 0.7683
 IR Inten    --      1.8532                 2.1087                 2.2454

                     31                     32                     33
                      A                      A                      A
 Frequencies --    861.9880               886.6426               889.1385
 Red. masses --      1.9527                 2.1662                 1.5700
 Frc consts  --      0.8548                 1.0033                 0.7313
 IR Inten    --      3.1387                 4.9452                 0.9258

                     34                     35                     36
                      A                      A                      A
 Frequencies --    922.6526               937.9161               941.2795
 Red. masses --      1.7024                 1.8056                 1.7709
 Frc consts  --      0.8539                 0.9359                 0.9244
 IR Inten    --      0.6137                 1.5032                 0.6168

                     37                     38                     39
                      A                      A                      A
 Frequencies --    956.2439               969.5680               985.6317
 Red. masses --      2.0351                 1.2023                 2.1297
 Frc consts  --      1.0964                 0.6659                 1.2190
 IR Inten    --      2.0945                 0.0899                 6.1432

                     40                     41                     42
                      A                      A                      A
 Frequencies --   1015.7751              1039.1170              1048.0780
 Red. masses --      1.7642                 2.2765                 1.5763
 Frc consts  --      1.0725                 1.4483                 1.0202
 IR Inten    --      3.8714                 1.5956                 0.8396

                     43                     44                     45
                      A                      A                      A
 Frequencies --   1051.2267              1073.1022              1091.0307
 Red. masses --      1.5922                 1.6035                 1.5678
 Frc consts  --      1.0367                 1.0879                 1.0996
 IR Inten    --      1.2259                 2.6993                 8.1586

                     46                     47                     48
                      A                      A                      A
 Frequencies --   1113.4275              1132.1486              1140.2955
 Red. masses --      2.5085                 1.5399                 2.2466
 Frc consts  --      1.8323                 1.1629                 1.7211
 IR Inten    --      5.9887                 8.1689                 0.4210

                     49                     50                     51
                      A                      A                      A
 Frequencies --   1171.5903              1181.7682              1216.4856
 Red. masses --      2.0133                 1.8802                 1.8973
 Frc consts  --      1.6282                 1.5471                 1.6542
 IR Inten    --     11.1457                 9.3115                 8.0228

                     52                     53                     54
                      A                      A                      A
 Frequencies --   1249.0868              1265.6441              1277.5484
 Red. masses --      2.2227                 1.9549                 1.8402
 Frc consts  --      2.0432                 1.8450                 1.7696
 IR Inten    --      7.4182                21.7499                 4.6546

                     55                     56                     57
                      A                      A                      A
 Frequencies --   1284.7219              1291.4911              1302.0718
 Red. masses --      1.4580                 1.3204                 1.4479
 Frc consts  --      1.4178                 1.2976                 1.4463
 IR Inten    --      0.1746                 2.6385                 0.9883

                     58                     59                     60
                      A                      A                      A
 Frequencies --   1334.7192              1343.4042              1350.5057
 Red. masses --      1.3646                 1.3066                 1.2154
 Frc consts  --      1.4323                 1.3893                 1.3061
 IR Inten    --      0.1565                 4.1735                 1.3096

                     61                     62                     63
                      A                      A                      A
 Frequencies --   1363.1241              1373.8318              1387.0370
 Red. masses --      1.3188                 1.3221                 1.3762
 Frc consts  --      1.4437                 1.4703                 1.5599
 IR Inten    --      2.0183                 1.8835                 7.1533

                     64                     65                     66
                      A                      A                      A
 Frequencies --   1398.8406              1414.3136              1426.4279
 Red. masses --      1.6552                 1.4844                 1.4601
 Frc consts  --      1.9082                 1.7494                 1.7504
 IR Inten    --      5.3050                 0.3960                 1.4049

                     67                     68                     69
                      A                      A                      A
 Frequencies --   1430.2948              1431.0475              1440.2810
 Red. masses --      1.2604                 1.2320                 1.2364
 Frc consts  --      1.5191                 1.4865                 1.5111
 IR Inten    --      2.6934                 8.1358                 0.5409

                     70                     71                     72
                      A                      A                      A
 Frequencies --   1461.3484              1496.7188              1508.0003
 Red. masses --      1.2224                 1.0878                 1.0838
 Frc consts  --      1.5381                 1.4358                 1.4521
 IR Inten    --      6.1879                 7.5750                 4.6328

                     73                     74                     75
                      A                      A                      A
 Frequencies --   1512.5489              1518.2978              1518.5235
 Red. masses --      1.0539                 1.0468                 1.0741
 Frc consts  --      1.4206                 1.4217                 1.4592
 IR Inten    --      1.0849                 0.9225                 1.5034

                     76                     77                     78
                      A                      A                      A
 Frequencies --   1523.3877              1524.3143              1530.0259
 Red. masses --      1.0540                 1.0570                 1.0425
 Frc consts  --      1.4411                 1.4470                 1.4378
 IR Inten    --      0.1140                 0.7334                 5.1174

                     79                     80                     81
                      A                      A                      A
 Frequencies --   1533.2717              1538.9172              1539.8010
 Red. masses --      1.0843                 1.0790                 1.0516
 Frc consts  --      1.5018                 1.5056                 1.4691
 IR Inten    --      4.6054                 2.7989                 3.7960

                     82                     83                     84
                      A                      A                      A
 Frequencies --   1542.7772              1551.9251              1806.2894
 Red. masses --      1.0607                 1.0564                11.3724
 Frc consts  --      1.4875                 1.4990                21.8614
 IR Inten    --      2.0363                13.2793               171.6733

                     85                     86                     87
                      A                      A                      A
 Frequencies --   2974.2166              2980.1827              3020.7967
 Red. masses --      1.0811                 1.0812                 1.0695
 Frc consts  --      5.6344                 5.6579                 5.7503
 IR Inten    --      4.4297                31.8135                11.9308

                     88                     89                     90
                      A                      A                      A
 Frequencies --   3028.1958              3038.6459              3040.2888
 Red. masses --      1.0656                 1.0389                 1.0655
 Frc consts  --      5.7570                 5.6518                 5.8029
 IR Inten    --     27.4182                10.6053                33.7593

                     91                     92                     93
                      A                      A                      A
 Frequencies --   3040.8168              3041.8421              3045.0973
 Red. masses --      1.0369                 1.0390                 1.0583
 Frc consts  --      5.6490                 5.6640                 5.7816
 IR Inten    --     39.8364                20.3495                21.5431

                     94                     95                     96
                      A                      A                      A
 Frequencies --   3049.2811              3056.6201              3077.0085
 Red. masses --      1.0449                 1.0573                 1.0915
 Frc consts  --      5.7244                 5.8202                 6.0886
 IR Inten    --      3.3771                46.0423                21.4256

                     97                     98                     99
                      A                      A                      A
 Frequencies --   3091.1787              3095.0420              3099.5763
 Red. masses --      1.0998                 1.1021                 1.1011
 Frc consts  --      6.1917                 6.2203                 6.2328
 IR Inten    --      1.1425                23.2655                10.4902

                    100                    101                    102
                      A                      A                      A
 Frequencies --   3100.1070              3105.3556              3109.8553
 Red. masses --      1.1000                 1.1011                 1.1002
 Frc consts  --      6.2286                 6.2559                 6.2692
 IR Inten    --     14.8276                47.4779                77.8054

                    103                    104                    105
                      A                      A                      A
 Frequencies --   3111.0820              3113.4340              3114.4077
 Red. masses --      1.1006                 1.0944                 1.1031
 Frc consts  --      6.2762                 6.2504                 6.3039
 IR Inten    --     42.4311                19.9547                61.3706

                    106                    107                    108
                      A                      A                      A
 Frequencies --   3117.6255              3121.4410              3122.0977
 Red. masses --      1.1021                 1.0990                 1.0990
 Frc consts  --      6.3114                 6.3090                 6.3115
 IR Inten    --      2.6825                76.1631                29.9876

 - Thermochemistry -
 -------------------
 Temperature   298.150 Kelvin.  Pressure   1.00000 Atm.
 Atom     1 has atomic number  8 and mass  15.99491

 Molecular mass:   196.18272 amu.
 Principal axes and moments of inertia in atomic units:
                           1         2         3
     Eigenvalues --  1737.865344693.544915704.40475
           X            0.99977   0.02157   0.00056
           Y           -0.02157   0.99975  -0.00552
           Z           -0.00068   0.00550   0.99998
 This molecule is an asymmetric top.
 Rotational symmetry number  1.
 Warning -- assumption of classical behavior for rotation
           may cause significant error
 Rotational temperatures (Kelvin)      0.04984     0.01845     0.01518
 Rotational constants (GHZ):           1.03848     0.38452     0.31638
 Zero-point vibrational energy     919652.9 (Joules/Mol)
                                  219.80233 (Kcal/Mol)
 Warning -- explicit consideration of  24 degrees of freedom as
           vibrations may cause significant error
 Vibrational temperatures:     41.08    80.03    95.15   108.50   150.46
          (Kelvin)            225.95   249.06   283.72   340.35   356.76
                              368.14   382.99   386.92   409.33   418.52
                              481.12   490.26   532.46   565.57   620.47
                              641.38   682.24   752.94   763.88   927.59
                              975.98  1040.07  1086.32  1114.42  1203.26
                             1240.21  1275.68  1279.27  1327.49  1349.45
                             1354.29  1375.82  1394.99  1418.10  1461.47
                             1495.06  1507.95  1512.48  1543.95  1569.75
                             1601.97  1628.91  1640.63  1685.66  1700.30
                             1750.25  1797.16  1820.98  1838.11  1848.43
                             1858.17  1873.39  1920.36  1932.86  1943.08
                             1961.23  1976.64  1995.64  2012.62  2034.88
                             2052.31  2057.88  2058.96  2072.24  2102.55
                             2153.44  2169.68  2176.22  2184.49  2184.82
                             2191.82  2193.15  2201.37  2206.04  2214.16
                             2215.43  2219.71  2232.87  2598.85  4279.23
                             4287.82  4346.25  4356.90  4371.93  4374.30
                             4375.06  4376.53  4381.22  4387.24  4397.79
                             4427.13  4447.52  4453.08  4459.60  4460.36
                             4467.91  4474.39  4476.15  4479.54  4480.94
                             4485.57  4491.06  4492.00

 Zero-point correction=                           0.350277 (Hartree/Particle)
 Thermal correction to Energy=                    0.366384
 Thermal correction to Enthalpy=                  0.367328
 Thermal correction to Gibbs Free Energy=         0.307031
 Sum of electronic and zero-point Energies=           -584.730607
 Sum of electronic and thermal Energies=              -584.714501
 Sum of electronic and thermal Enthalpies=            -584.713556
 Sum of electronic and thermal Free Energies=         -584.773854

                     E (Thermal)             CV                S
                      KCal/Mol        Cal/Mol-Kelvin    Cal/Mol-Kelvin
 Total                  229.909             61.676            126.907
 Electronic               0.000              0.000              0.000
 Translational            0.889              2.981             41.727
 Rotational               0.889              2.981             32.209
 Vibrational            228.132             55.715             52.971
 Vibration     1          0.593              1.984              5.928
 Vibration     2          0.596              1.975              4.607
 Vibration     3          0.598              1.970              4.265
 Vibration     4          0.599              1.965              4.007
 Vibration     5          0.605              1.946              3.367
 Vibration     6          0.621              1.895              2.585
 Vibration     7          0.627              1.876              2.401
 Vibration     8          0.637              1.844              2.159
 Vibration     9          0.655              1.785              1.829
 Vibration    10          0.662              1.766              1.745
 Vibration    11          0.666              1.753              1.690
 Vibration    12          0.672              1.735              1.621
 Vibration    13          0.673              1.730              1.603
 Vibration    14          0.683              1.702              1.506
 Vibration    15          0.687              1.691              1.469
 Vibration    16          0.716              1.607              1.239
 Vibration    17          0.720              1.594              1.209
 Vibration    18          0.742              1.534              1.079
 Vibration    19          0.760              1.485              0.988
 Vibration    20          0.792              1.402              0.855
 Vibration    21          0.805              1.370              0.809
 Vibration    22          0.831              1.307              0.726
 Vibration    23          0.878              1.198              0.602
 Vibration    24          0.886              1.182              0.585

 Normal termination of Gaussian 16 at Sat Feb 24 01:55:38 2024.
