 Gaussian 16, Revision A.03,
 Gaussian 16:  EM64M-G16RevA.03 25-Dec-2016

 ---------------------
 # freq b3lyp/6-31g(d)
 ---------------------

 ---------
 good luck
 ---------
 Symbolic Z-matrix:
 Charge =  0 Multiplicity = 1

                         Standard orientation:
 ---------------------------------------------------------------------
 Center     Atomic      Atomic             Coordinates (Angstroms)
 Number     Number       Type             X           Y           Z
 ---------------------------------------------------------------------
      1          8           0       -2.127092    1.940379    0.690622
      2          6           0       -1.237871    1.424934    0.037027
      3          6           0       -1.197532   -0.067106   -0.295054
      4          6           0       -2.407545   -0.839605    0.248487
      5          6           0       -3.721119   -0.566019   -0.497320
      6          6           0       -4.895305   -1.380029    0.055519
      7          6           0        0.152560   -0.647360    0.206545
      8          6           0        1.384398    0.092751   -0.359788
      9          6           0        2.758250   -0.572064    0.009256
     10          6           0        2.797575   -2.021225   -0.524621
     11          6           0        3.909847    0.201307   -0.670370
     12          6           0        3.009949   -0.597850    1.531096
     13          6           0        1.285293    1.587155    0.014099
     14          6           0       -0.040480    2.216015   -0.465720
     15          1           0       -1.187383   -0.141384   -1.395719
     16          1           0       -2.185087   -1.915309    0.198225
     17          1           0       -2.536811   -0.593258    1.310226
     18          1           0       -3.586786   -0.798516   -1.564093
     19          1           0       -3.952923    0.502442   -0.433072
     20          1           0       -5.819329   -1.172725   -0.496272
     21          1           0       -4.701490   -2.458057   -0.012228
     22          1           0       -5.077747   -1.141980    1.110416
     23          1           0        0.162603   -0.604125    1.304721
     24          1           0        0.178528   -1.708102   -0.062888
     25          1           0        1.315438    0.033296   -1.459279
     26          1           0        3.795580   -2.451813   -0.380485
     27          1           0        2.086493   -2.675492   -0.010095
     28          1           0        2.573522   -2.056603   -1.598405
     29          1           0        4.035021    1.208556   -0.260042
     30          1           0        4.859451   -0.327299   -0.525479
     31          1           0        3.744293    0.294753   -1.751302
     32          1           0        3.979940   -1.062868    1.744755
     33          1           0        3.030547    0.409736    1.961183
     34          1           0        2.247170   -1.176647    2.063572
     35          1           0        1.353289    1.702696    1.104065
     36          1           0        2.115622    2.157441   -0.413863
     37          1           0       -0.061673    2.214932   -1.565809
     38          1           0       -0.139660    3.251865   -0.128042
 ---------------------------------------------------------------------

 SCF Done:  E(RB3LYP) =  -585.082453691     A.U. after   13 cycles

 The electronic state is 1-A.
 Alpha  occ. eigenvalues --  -19.13343 -10.26569 -10.20228 -10.19390 -10.19303
 Alpha  occ. eigenvalues --  -10.19044 -10.18884 -10.18830 -10.17531 -10.17520
 Alpha  occ. eigenvalues --  -10.17495 -10.17488 -10.17119 -10.16646  -1.03159
 Alpha  occ. eigenvalues --   -0.84601  -0.80729  -0.78287  -0.74669  -0.71527
 Alpha  occ. eigenvalues --   -0.68686  -0.68635  -0.66385  -0.60926  -0.60437
 Alpha  occ. eigenvalues --   -0.57566  -0.53007  -0.52622  -0.47624  -0.47292
 Alpha  occ. eigenvalues --   -0.45062  -0.44542  -0.44151  -0.43671  -0.42760
 Alpha  occ. eigenvalues --   -0.42164  -0.41558  -0.40280  -0.38843  -0.38614
 Alpha  occ. eigenvalues --   -0.37672  -0.37421  -0.36803  -0.36024  -0.35319
 Alpha  occ. eigenvalues --   -0.34845  -0.34696  -0.33840  -0.33138  -0.32172
 Alpha  occ. eigenvalues --   -0.32029  -0.31549  -0.30462  -0.29417  -0.23348
 Alpha virt. eigenvalues --   -0.01186   0.07682   0.09235   0.10331   0.11140
 Alpha virt. eigenvalues --    0.11736   0.12386   0.12718   0.13370   0.14360
 Alpha virt. eigenvalues --    0.14571   0.14967   0.15816   0.16554   0.16889

 Mulliken charges:
               1
     1  O   -0.453717
     2  C    0.452191
     3  C   -0.174949
     4  C   -0.243526
     5  C   -0.259348
     6  C   -0.442721
     7  C   -0.292061
     8  C   -0.074566
     9  C    0.103558
    10  C   -0.452612
    11  C   -0.452828
    12  C   -0.456620
    13  C   -0.288324
    14  C   -0.343319
    15  H    0.135454
    16  H    0.120868
    17  H    0.144767
    18  H    0.119892
    19  H    0.160020
    20  H    0.140845
    21  H    0.136023
    22  H    0.146005
    23  H    0.142377
    24  H    0.144360
    25  H    0.110960
    26  H    0.140220
    27  H    0.145024
    28  H    0.137559
    29  H    0.144630
    30  H    0.140282
    31  H    0.137446
    32  H    0.140814
    33  H    0.143906
    34  H    0.144979
    35  H    0.145999
    36  H    0.145739
    37  H    0.150270
    38  H    0.160400
 Sum of Mulliken charges =  -0.00000

 Dipole moment (field-independent basis, Debye):
    X=              2.4027    Y=             -1.1888    Z=             -1.2667  Tot=              2.9649
 Quadrupole moment (field-independent basis, Debye-Ang):
   XX=            -94.5404   YY=            -92.3621   ZZ=            -89.3988
   XY=              4.9145   XZ=              2.9402   YZ=             -2.6858

  Exact polarizability: 162.888  -1.062 130.801  -2.927   0.477 115.526
 Approx polarizability: 195.380  -6.785 185.922  -8.321   5.344 184.279

                      1                      2                      3
                      A                      A                      A
 Frequencies --     28.9911                57.3028                68.9229
 Red. masses --      2.6363                 3.7748                 2.4061
 Frc consts  --      0.0013                 0.0073                 0.0067
 IR Inten    --      0.0549                 1.4576                 0.4056

                      4                      5                      6
                      A                      A                      A
 Frequencies --     73.8853               102.6655               152.2470
 Red. masses --      2.5112                 2.5371                 2.4808
 Frc consts  --      0.0081                 0.0158                 0.0339
 IR Inten    --      0.2629                 1.0463                 0.5348

                      7                      8                      9
                      A                      A                      A
 Frequencies --    168.6610               196.0774               234.4937
 Red. masses --      2.8270                 1.8306                 1.6458
 Frc consts  --      0.0474                 0.0415                 0.0533
 IR Inten    --      0.8235                 0.0753                 0.2424

                     10                     11                     12
                      A                      A                      A
 Frequencies --    246.9015               254.6722               263.0776
 Red. masses --      1.1635                 1.3258                 2.0066
 Frc consts  --      0.0418                 0.0507                 0.0818
 IR Inten    --      0.3227                 0.2072                 0.2512

                     13                     14                     15
                      A                      A                      A
 Frequencies --    266.4897               282.4746               286.6708
 Red. masses --      1.0980                 2.7383                 2.9269
 Frc consts  --      0.0459                 0.1287                 0.1417
 IR Inten    --      0.0058                 2.6719                 1.0826

                     16                     17                     18
                      A                      A                      A
 Frequencies --    323.5389               340.0584               376.5785
 Red. masses --      2.3785                 1.9539                 2.2195
 Frc consts  --      0.1467                 0.1331                 0.1854
 IR Inten    --      0.4189                 0.1153                 0.2590

                     19                     20                     21
                      A                      A                      A
 Frequencies --    396.6420               443.7604               454.5961
 Red. masses --      2.3485                 2.5689                 2.7753
 Frc consts  --      0.2177                 0.2981                 0.3379
 IR Inten    --      0.5948                 0.5124                 0.3319

                     22                     23                     24
                      A                      A                      A
 Frequencies --    476.0692               510.1046               533.0500
 Red. masses --      3.3063                 2.2948                 2.5268
 Frc consts  --      0.4415                 0.3518                 0.4230
 IR Inten    --      5.8978                 2.3042                 1.5242

                     25                     26                     27
                      A                      A                      A
 Frequencies --    591.1619               691.7905               724.4117
 Red. masses --      3.1211                 3.6562                 1.9483
 Frc consts  --      0.6426                 1.0309                 0.6024
 IR Inten    --      1.3685                 1.0665                 7.2364

                     28                     29                     30
                      A                      A                      A
 Frequencies --    761.1022               780.1890               829.6217
 Red. masses --      1.3625                 2.6084                 1.6184
 Frc consts  --      0.4650                 0.9355                 0.6563
 IR Inten    --      0.7996                 2.3471                 2.9321

                     31                     32                     33
                      A                      A                      A
 Frequencies --    866.5234               891.8409               916.6669
 Red. masses --      2.5219                 1.5146                 1.6983
 Frc consts  --      1.1157                 0.7098                 0.8408
 IR Inten    --      3.6661                 0.8933                 1.2311

                     34                     35                     36
                      A                      A                      A
 Frequencies --    929.3560               938.0420               941.6082
 Red. masses --      1.8866                 1.7883                 1.7479
 Frc consts  --      0.9601                 0.9271                 0.9131
 IR Inten    --      0.8775                 1.3175                 0.7001

                     37                     38                     39
                      A                      A                      A
 Frequencies --    957.9988               969.8048               986.8614
 Red. masses --      2.1262                 1.2066                 2.2962
 Frc consts  --      1.1497                 0.6686                 1.3176
 IR Inten    --      2.7310                 0.0884                 8.5517

                     40                     41                     42
                      A                      A                      A
 Frequencies --   1026.5710              1045.0729              1050.2427
 Red. masses --      1.9478                 1.6578                 1.8230
 Frc consts  --      1.2094                 1.0668                 1.1848
 IR Inten    --      0.9517                 1.5433                 0.3919

                     43                     44                     45
                      A                      A                      A
 Frequencies --   1054.6565              1069.2804              1088.8461
 Red. masses --      1.8974                 1.6655                 1.7171
 Frc consts  --      1.2434                 1.1220                 1.1994
 IR Inten    --      0.5111                 2.1073                12.3094

                     46                     47                     48
                      A                      A                      A
 Frequencies --   1106.4260              1127.7014              1144.7669
 Red. masses --      2.4243                 1.5283                 2.1991
 Frc consts  --      1.7485                 1.1451                 1.6979
 IR Inten    --      2.1534                 2.4615                 1.8973

                     49                     50                     51
                      A                      A                      A
 Frequencies --   1159.5281              1183.7920              1213.1865
 Red. masses --      1.8336                 2.0970                 1.7997
 Frc consts  --      1.4525                 1.7314                 1.5606
 IR Inten    --      2.4165                24.5428                 6.8379

                     52                     53                     54
                      A                      A                      A
 Frequencies --   1247.2105              1263.3907              1271.3506
 Red. masses --      2.0384                 1.8839                 1.5102
 Frc consts  --      1.8682                 1.7717                 1.4382
 IR Inten    --      9.6459                17.0538                 0.7465

                     55                     56                     57
                      A                      A                      A
 Frequencies --   1275.1393              1285.8489              1306.5654
 Red. masses --      1.9843                 1.4855                 1.2470
 Frc consts  --      1.9010                 1.4471                 1.2543
 IR Inten    --      6.8394                 2.7366                 0.5592

                     58                     59                     60
                      A                      A                      A
 Frequencies --   1331.0418              1345.1599              1345.9464
 Red. masses --      1.3243                 1.1559                 1.3493
 Frc consts  --      1.3824                 1.2323                 1.4401
 IR Inten    --      2.1774                 1.3393                 0.1701

                     61                     62                     63
                      A                      A                      A
 Frequencies --   1361.0967              1370.2007              1391.1304
 Red. masses --      1.3343                 1.3091                 1.3418
 Frc consts  --      1.4565                 1.4481                 1.5299
 IR Inten    --      1.6482                 4.6704                 1.8288

                     64                     65                     66
                      A                      A                      A
 Frequencies --   1402.9177              1414.1578              1421.8257
 Red. masses --      1.5968                 1.5802                 1.5098
 Frc consts  --      1.8517                 1.8619                 1.7983
 IR Inten    --      6.7291                 4.6942                 0.9515

                     67                     68                     69
                      A                      A                      A
 Frequencies --   1430.4258              1431.2471              1440.1106
 Red. masses --      1.2416                 1.2313                 1.2429
 Frc consts  --      1.4968                 1.4860                 1.5187
 IR Inten    --      2.1974                 8.1412                 0.9458

                     70                     71                     72
                      A                      A                      A
 Frequencies --   1461.6721              1500.3882              1507.2780
 Red. masses --      1.2225                 1.0921                 1.0838
 Frc consts  --      1.5388                 1.4485                 1.4507
 IR Inten    --      5.9451                 7.0827                 1.1893

                     73                     74                     75
                      A                      A                      A
 Frequencies --   1512.4468              1518.0112              1519.0474
 Red. masses --      1.0539                 1.0449                 1.0789
 Frc consts  --      1.4205                 1.4187                 1.4668
 IR Inten    --      1.3917                 0.8328                 2.3543

                     76                     77                     78
                      A                      A                      A
 Frequencies --   1523.5791              1524.2920              1530.0075
 Red. masses --      1.0530                 1.0564                 1.0415
 Frc consts  --      1.4402                 1.4461                 1.4365
 IR Inten    --      0.2228                 0.5752                 5.3758

                     79                     80                     81
                      A                      A                      A
 Frequencies --   1531.7746              1538.8392              1539.8089
 Red. masses --      1.0872                 1.0788                 1.0512
 Frc consts  --      1.5029                 1.5052                 1.4685
 IR Inten    --      3.2368                 3.7658                 3.5765

                     82                     83                     84
                      A                      A                      A
 Frequencies --   1542.6533              1552.0439              1807.1937
 Red. masses --      1.0601                 1.0558                11.1497
 Frc consts  --      1.4864                 1.4985                21.4547
 IR Inten    --      1.7139                13.7190               170.5565

                     85                     86                     87
                      A                      A                      A
 Frequencies --   2979.6865              2989.2800              3023.9453
 Red. masses --      1.0821                 1.0804                 1.0665
 Frc consts  --      5.6608                 5.6880                 5.7462
 IR Inten    --     13.9015                12.2189                16.4084

                     88                     89                     90
                      A                      A                      A
 Frequencies --   3025.5531              3028.1923              3037.4153
 Red. masses --      1.0679                 1.0688                 1.0589
 Frc consts  --      5.7598                 5.7742                 5.7557
 IR Inten    --     25.1686                14.3936                 5.4466

                     91                     92                     93
                      A                      A                      A
 Frequencies --   3039.3248              3040.3898              3042.1401
 Red. masses --      1.0418                 1.0375                 1.0387
 Frc consts  --      5.6702                 5.6508                 5.6639
 IR Inten    --     20.0289                48.1067                25.6888

                     94                     95                     96
                      A                      A                      A
 Frequencies --   3046.6974              3052.8837              3073.6942
 Red. masses --      1.0517                 1.0486                 1.0935
 Frc consts  --      5.7518                 5.7582                 6.0866
 IR Inten    --     21.2891                42.9240                17.3400

                     97                     98                     99
                      A                      A                      A
 Frequencies --   3090.8501              3096.2109              3099.6872
 Red. masses --      1.0973                 1.0983                 1.1018
 Frc consts  --      6.1764                 6.2037                 6.2369
 IR Inten    --      2.9549                20.7016                 2.4565

                    100                    101                    102
                      A                      A                      A
 Frequencies --   3100.6273              3105.3640              3110.0249
 Red. masses --      1.0994                 1.1011                 1.1002
 Frc consts  --      6.2272                 6.2558                 6.2699
 IR Inten    --     20.1410                49.4564                77.3765

                    103                    104                    105
                      A                      A                      A
 Frequencies --   3111.1360              3113.2365              3116.3961
 Red. masses --      1.1016                 1.1002                 1.0961
 Frc consts  --      6.2825                 6.2828                 6.2721
 IR Inten    --     39.9291                61.3505                23.9460

                    106                    107                    108
                      A                      A                      A
 Frequencies --   3117.9773              3121.8762              3122.6306
 Red. masses --      1.1019                 1.0988                 1.0988
 Frc consts  --      6.3115                 6.3097                 6.3127
 IR Inten    --      4.9278                72.5141                31.6780

 - Thermochemistry -
 -------------------
 Temperature   298.150 Kelvin.  Pressure   1.00000 Atm.
 Atom     1 has atomic number  8 and mass  15.99491

 Molecular mass:   196.18272 amu.
 Principal axes and moments of inertia in atomic units:
                           1         2         3
     Eigenvalues --  1501.182195288.344826169.01007
           X            0.99990   0.01420   0.00231
           Y           -0.01416   0.99977  -0.01610
           Z           -0.00253   0.01607   0.99987
 This molecule is an asymmetric top.
 Rotational symmetry number  1.
 Warning -- assumption of classical behavior for rotation
           may cause significant error
 Rotational temperatures (Kelvin)      0.05770     0.01638     0.01404
 Rotational constants (GHZ):           1.20221     0.34127     0.29255
 Zero-point vibrational energy     919413.9 (Joules/Mol)
                                  219.74520 (Kcal/Mol)
 Warning -- explicit consideration of  25 degrees of freedom as
           vibrations may cause significant error
 Vibrational temperatures:     41.71    82.45    99.16   106.30   147.71
          (Kelvin)            219.05   242.67   282.11   337.38   355.24
                              366.42   378.51   383.42   406.42   412.46
                              465.50   489.27   541.81   570.68   638.47
                              654.06   684.96   733.93   766.94   850.55
                              995.33  1042.27  1095.06  1122.52  1193.64
                             1246.73  1283.16  1318.88  1337.14  1349.63
                             1354.76  1378.35  1395.33  1419.87  1477.01
                             1503.63  1511.06  1517.42  1538.46  1566.61
                             1591.90  1622.51  1647.06  1668.30  1703.21
                             1745.50  1794.46  1817.74  1829.19  1834.64
                             1850.05  1879.86  1915.07  1935.39  1936.52
                             1958.31  1971.41  2001.53  2018.49  2034.66
                             2045.69  2058.06  2059.25  2072.00  2103.02
                             2158.72  2168.64  2176.07  2184.08  2185.57
                             2192.09  2193.12  2201.34  2203.88  2214.05
                             2215.44  2219.53  2233.04  2600.15  4287.10
                             4300.91  4350.78  4353.10  4356.89  4370.16
                             4372.91  4374.44  4376.96  4383.52  4392.42
                             4422.36  4447.04  4454.76  4459.76  4461.11
                             4467.93  4474.63  4476.23  4479.25  4483.80
                             4486.07  4491.68  4492.77

 Zero-point correction=                           0.350186 (Hartree/Particle)
 Thermal correction to Energy=                    0.366331
 Thermal correction to Enthalpy=                  0.367275
 Thermal correction to Gibbs Free Energy=         0.306888
 Sum of electronic and zero-point Energies=           -584.732267
 Sum of electronic and thermal Energies=              -584.716123
 Sum of electronic and thermal Enthalpies=            -584.715179
 Sum of electronic and thermal Free Energies=         -584.775566

                     E (Thermal)             CV                S
                      KCal/Mol        Cal/Mol-Kelvin    Cal/Mol-Kelvin
 Total                  229.876             61.713            127.095
 Electronic               0.000              0.000              0.000
 Translational            0.889              2.981             41.727
 Rotational               0.889              2.981             32.260
 Vibrational            228.098             55.752             53.109
 Vibration     1          0.593              1.984              5.897
 Vibration     2          0.596              1.975              4.548
 Vibration     3          0.598              1.969              4.184
 Vibration     4          0.599              1.966              4.047
 Vibration     5          0.605              1.947              3.403
 Vibration     6          0.619              1.900              2.644
 Vibration     7          0.625              1.881              2.450
 Vibration     8          0.636              1.845              2.170
 Vibration     9          0.654              1.788              1.844
 Vibration    10          0.661              1.768              1.753
 Vibration    11          0.665              1.755              1.698
 Vibration    12          0.670              1.741              1.641
 Vibration    13          0.672              1.735              1.619
 Vibration    14          0.682              1.706              1.519
 Vibration    15          0.684              1.698              1.494
 Vibration    16          0.708              1.628              1.292
 Vibration    17          0.720              1.595              1.212
 Vibration    18          0.747              1.520              1.053
 Vibration    19          0.763              1.477              0.975
 Vibration    20          0.803              1.375              0.815
 Vibration    21          0.813              1.351              0.782
 Vibration    22          0.833              1.303              0.721
 Vibration    23          0.865              1.228              0.633
 Vibration    24          0.888              1.177              0.580
 Vibration    25          0.949              1.051              0.465

 Normal termination of Gaussian 16 at Sat Feb 24 01:45:46 2024.
