 Gaussian 16, Revision A.03,
 Gaussian 16:  EM64M-G16RevA.03 25-Dec-2016

 ---------------------
 # freq b3lyp/6-31g(d)
 ---------------------

 ---------
 good luck
 ---------
 Symbolic Z-matrix:
 Charge =  0 Multiplicity = 1

                         Standard orientation:
 ---------------------------------------------------------------------
 Center     Atomic      Atomic             Coordinates (Angstroms)
 Number     Number       Type             X           Y           Z
 ---------------------------------------------------------------------
      1          8           0       -1.927857    2.580223    0.514392
      2          6           0       -1.086926    1.895338   -0.038679
      3          6           0       -1.294075    0.410751   -0.347426
      4          6           0       -2.648668   -0.098171    0.167639
      5          6           0       -3.064658   -1.472239   -0.374331
      6          6           0       -4.452577   -1.901191    0.114247
      7          6           0       -0.081479   -0.400756    0.178653
      8          6           0        1.275668    0.114921   -0.348856
      9          6           0        2.500304   -0.787557    0.039996
     10          6           0        3.784653   -0.231940   -0.614421
     11          6           0        2.288960   -2.218727   -0.502003
     12          6           0        2.714841   -0.862748    1.565831
     13          6           0        1.431696    1.597614    0.049273
     14          6           0        0.260139    2.457399   -0.467077
     15          1           0       -1.281089    0.331404   -1.448784
     16          1           0       -2.627642   -0.123330    1.266209
     17          1           0       -3.414567    0.641919   -0.092556
     18          1           0       -3.057562   -1.446619   -1.473915
     19          1           0       -2.331434   -2.236244   -0.083166
     20          1           0       -4.732910   -2.881730   -0.287157
     21          1           0       -5.220140   -1.181050   -0.193924
     22          1           0       -4.483614   -1.967300    1.208649
     23          1           0       -0.225487   -1.449188   -0.096732
     24          1           0       -0.092135   -0.362077    1.277297
     25          1           0        1.225346    0.082271   -1.450523
     26          1           0        3.660030   -0.111866   -1.698200
     27          1           0        4.078877    0.737470   -0.199433
     28          1           0        4.622094   -0.920752   -0.451910
     29          1           0        1.466250   -2.738192   -0.000237
     30          1           0        3.192523   -2.820317   -0.347662
     31          1           0        2.076588   -2.210205   -1.578703
     32          1           0        1.848188   -1.291401    2.081280
     33          1           0        3.577905   -1.499721    1.794377
     34          1           0        2.913401    0.122782    2.001600
     35          1           0        2.366602    2.015575   -0.336971
     36          1           0        1.477111    1.684847    1.143104
     37          1           0        0.285665    2.474107   -1.567390
     38          1           0        0.331588    3.491686   -0.117474
 ---------------------------------------------------------------------

 SCF Done:  E(RB3LYP) =  -585.081634247     A.U. after   13 cycles

 The electronic state is 1-A.
 Alpha  occ. eigenvalues --  -19.13198 -10.26454 -10.20198 -10.19342 -10.19307
 Alpha  occ. eigenvalues --  -10.18952 -10.18829 -10.18711 -10.17954 -10.17508
 Alpha  occ. eigenvalues --  -10.17506 -10.17483 -10.17416 -10.17116  -1.03048
 Alpha  occ. eigenvalues --   -0.84558  -0.80765  -0.78442  -0.74723  -0.71601
 Alpha  occ. eigenvalues --   -0.68686  -0.68620  -0.66497  -0.61682  -0.60154
 Alpha  occ. eigenvalues --   -0.57456  -0.53069  -0.52599  -0.47379  -0.46706
 Alpha  occ. eigenvalues --   -0.45886  -0.44598  -0.44208  -0.43799  -0.42841
 Alpha  occ. eigenvalues --   -0.41916  -0.41818  -0.40656  -0.39286  -0.38225
 Alpha  occ. eigenvalues --   -0.37872  -0.37408  -0.37118  -0.36224  -0.35312
 Alpha  occ. eigenvalues --   -0.34616  -0.34379  -0.33832  -0.33084  -0.32593
 Alpha  occ. eigenvalues --   -0.32255  -0.31527  -0.30321  -0.29726  -0.23256
 Alpha virt. eigenvalues --   -0.01044   0.07640   0.09172   0.09654   0.11165
 Alpha virt. eigenvalues --    0.11635   0.12218   0.12736   0.13265   0.14184
 Alpha virt. eigenvalues --    0.14389   0.15229   0.15910   0.16451   0.16609

 Mulliken charges:
               1
     1  O   -0.452314
     2  C    0.449491
     3  C   -0.180702
     4  C   -0.244719
     5  C   -0.258717
     6  C   -0.441164
     7  C   -0.292348
     8  C   -0.075038
     9  C    0.103250
    10  C   -0.452547
    11  C   -0.452659
    12  C   -0.456403
    13  C   -0.286513
    14  C   -0.345885
    15  H    0.136761
    16  H    0.134650
    17  H    0.151482
    18  H    0.127837
    19  H    0.132171
    20  H    0.140429
    21  H    0.145163
    22  H    0.143412
    23  H    0.149071
    24  H    0.139647
    25  H    0.110711
    26  H    0.137409
    27  H    0.144526
    28  H    0.140167
    29  H    0.144788
    30  H    0.140070
    31  H    0.137604
    32  H    0.144436
    33  H    0.140665
    34  H    0.143930
    35  H    0.144786
    36  H    0.144793
    37  H    0.151128
    38  H    0.160635
 Sum of Mulliken charges =  -0.00000

 Dipole moment (field-independent basis, Debye):
    X=              2.1478    Y=             -1.7550    Z=             -1.1305  Tot=              2.9951
 Quadrupole moment (field-independent basis, Debye-Ang):
   XX=            -93.2142   YY=            -95.5385   ZZ=            -88.8077
   XY=              6.6192   XZ=              2.4793   YZ=             -3.2222

  Exact polarizability: 156.539  -1.103 137.111  -2.740   1.198 114.715
 Approx polarizability: 193.344  -8.086 189.033  -6.487   5.338 183.003

                      1                      2                      3
                      A                      A                      A
 Frequencies --     29.8609                53.4785                62.5989
 Red. masses --      2.6502                 2.1084                 2.5459
 Frc consts  --      0.0014                 0.0036                 0.0059
 IR Inten    --      0.0571                 0.6914                 1.3720

                      4                      5                      6
                      A                      A                      A
 Frequencies --     73.2447                87.5147               142.7850
 Red. masses --      3.2469                 2.9385                 2.6655
 Frc consts  --      0.0103                 0.0133                 0.0320
 IR Inten    --      0.6649                 0.2076                 0.1918

                      7                      8                      9
                      A                      A                      A
 Frequencies --    172.1845               186.2829               234.5332
 Red. masses --      2.5012                 2.1419                 1.3703
 Frc consts  --      0.0437                 0.0438                 0.0444
 IR Inten    --      1.5345                 0.1953                 0.2456

                     10                     11                     12
                      A                      A                      A
 Frequencies --    248.3327               256.2803               265.5403
 Red. masses --      1.1121                 1.2727                 1.2016
 Frc consts  --      0.0404                 0.0492                 0.0499
 IR Inten    --      0.0010                 0.1211                 0.3012

                     13                     14                     15
                      A                      A                      A
 Frequencies --    268.2913               280.2500               313.9382
 Red. masses --      2.2540                 2.5996                 3.1064
 Frc consts  --      0.0956                 0.1203                 0.1804
 IR Inten    --      0.2266                 0.6375                 3.0784

                     16                     17                     18
                      A                      A                      A
 Frequencies --    323.1122               341.8369               363.7131
 Red. masses --      2.6915                 1.9735                 2.1727
 Frc consts  --      0.1656                 0.1359                 0.1693
 IR Inten    --      2.0382                 0.0957                 0.2847

                     19                     20                     21
                      A                      A                      A
 Frequencies --    392.2734               443.4924               447.0728
 Red. masses --      2.1509                 2.7789                 2.6731
 Frc consts  --      0.1950                 0.3220                 0.3148
 IR Inten    --      0.0776                 0.6723                 0.5383

                     22                     23                     24
                      A                      A                      A
 Frequencies --    470.5959               523.5679               536.4492
 Red. masses --      2.7252                 2.3972                 2.4431
 Frc consts  --      0.3556                 0.3872                 0.4142
 IR Inten    --      1.8599                 2.0676                 2.7916

                     25                     26                     27
                      A                      A                      A
 Frequencies --    575.7538               687.9651               746.1753
 Red. masses --      3.7615                 3.5868                 1.1594
 Frc consts  --      0.7347                 1.0002                 0.3803
 IR Inten    --      3.7127                 1.7156                 3.0932

                     28                     29                     30
                      A                      A                      A
 Frequencies --    760.8316               781.5673               836.1934
 Red. masses --      2.5769                 2.6762                 1.8926
 Frc consts  --      0.8789                 0.9632                 0.7797
 IR Inten    --      1.9034                 2.4423                 3.7561

                     31                     32                     33
                      A                      A                      A
 Frequencies --    863.3692               875.1373               915.6934
 Red. masses --      1.4706                 2.3907                 1.6501
 Frc consts  --      0.6459                 1.0788                 0.8152
 IR Inten    --      3.2012                 4.9970                 0.6286

                     34                     35                     36
                      A                      A                      A
 Frequencies --    926.3498               939.2250               941.6085
 Red. masses --      2.0025                 1.7792                 1.7691
 Frc consts  --      1.0124                 0.9247                 0.9242
 IR Inten    --      0.2666                 1.7651                 0.7663

                     37                     38                     39
                      A                      A                      A
 Frequencies --    957.0602               970.1340               984.0902
 Red. masses --      1.9950                 1.2014                 2.0419
 Frc consts  --      1.0767                 0.6662                 1.1651
 IR Inten    --      2.0522                 0.0965                 3.0433

                     40                     41                     42
                      A                      A                      A
 Frequencies --   1011.7256              1044.7071              1048.9291
 Red. masses --      1.7720                 1.9145                 1.6157
 Frc consts  --      1.0687                 1.2311                 1.0474
 IR Inten    --      5.3902                 1.7629                 0.4586

                     43                     44                     45
                      A                      A                      A
 Frequencies --   1053.6256              1079.8012              1090.0410
 Red. masses --      1.7579                 1.7719                 1.5678
 Frc consts  --      1.1498                 1.2172                 1.0976
 IR Inten    --      0.2442                 1.4805                 5.5041

                     46                     47                     48
                      A                      A                      A
 Frequencies --   1108.1951              1128.6812              1146.7776
 Red. masses --      2.5150                 1.5864                 2.0963
 Frc consts  --      1.8198                 1.1907                 1.6243
 IR Inten    --      2.6222                 7.8222                 0.8475

                     49                     50                     51
                      A                      A                      A
 Frequencies --   1156.6809              1189.2885              1216.8016
 Red. masses --      2.1497                 2.0145                 1.8342
 Frc consts  --      1.6945                 1.6788                 1.6001
 IR Inten    --      6.9899                26.0420                 4.8820

                     52                     53                     54
                      A                      A                      A
 Frequencies --   1248.1771              1263.8519              1269.5193
 Red. masses --      2.0675                 1.8644                 1.5693
 Frc consts  --      1.8978                 1.7546                 1.4902
 IR Inten    --      8.1099                15.0509                 1.5547

                     55                     56                     57
                      A                      A                      A
 Frequencies --   1275.7206              1293.4613              1310.5270
 Red. masses --      1.9499                 1.5146                 1.2814
 Frc consts  --      1.8697                 1.4930                 1.2967
 IR Inten    --      7.2180                 2.2674                 1.1631

                     58                     59                     60
                      A                      A                      A
 Frequencies --   1332.1878              1338.3138              1350.0035
 Red. masses --      1.2149                 1.3587                 1.2226
 Frc consts  --      1.2704                 1.4338                 1.3128
 IR Inten    --      1.0975                 2.4934                 0.2971

                     61                     62                     63
                      A                      A                      A
 Frequencies --   1357.6160              1369.4359              1385.7211
 Red. masses --      1.2562                 1.3381                 1.4390
 Frc consts  --      1.3641                 1.4785                 1.6280
 IR Inten    --      1.8255                 0.6014                12.7068

                     64                     65                     66
                      A                      A                      A
 Frequencies --   1394.4917              1410.3210              1425.4709
 Red. masses --      1.5421                 1.4881                 1.5578
 Frc consts  --      1.7668                 1.7439                 1.8650
 IR Inten    --      3.1811                 0.9002                 2.3156

                     67                     68                     69
                      A                      A                      A
 Frequencies --   1430.8783              1431.3428              1441.1786
 Red. masses --      1.2593                 1.2404                 1.2408
 Frc consts  --      1.5191                 1.4972                 1.5183
 IR Inten    --      3.3265                 6.7199                 0.9481

                     70                     71                     72
                      A                      A                      A
 Frequencies --   1461.5442              1498.8054              1511.6148
 Red. masses --      1.2224                 1.0906                 1.0769
 Frc consts  --      1.5385                 1.4435                 1.4498
 IR Inten    --      5.9852                 7.3923                 1.5615

                     73                     74                     75
                      A                      A                      A
 Frequencies --   1512.5136              1518.3649              1518.8732
 Red. masses --      1.0543                 1.0468                 1.0769
 Frc consts  --      1.4211                 1.4219                 1.4638
 IR Inten    --      0.9956                 0.8512                 1.1733

                     76                     77                     78
                      A                      A                      A
 Frequencies --   1523.0656              1524.6017              1529.3417
 Red. masses --      1.0568                 1.0551                 1.0409
 Frc consts  --      1.4444                 1.4450                 1.4344
 IR Inten    --      0.4596                 0.7748                 5.8133

                     79                     80                     81
                      A                      A                      A
 Frequencies --   1532.2932              1539.7889              1540.3356
 Red. masses --      1.0865                 1.0513                 1.0802
 Frc consts  --      1.5030                 1.4686                 1.5100
 IR Inten    --      1.7199                 3.4120                 5.0215

                     82                     83                     84
                      A                      A                      A
 Frequencies --   1542.9281              1552.4060              1809.1600
 Red. masses --      1.0602                 1.0559                11.5232
 Frc consts  --      1.4870                 1.4993                22.2217
 IR Inten    --      1.5915                13.6543               173.0576

                     85                     86                     87
                      A                      A                      A
 Frequencies --   2976.6687              2981.1262              3022.5252
 Red. masses --      1.0813                 1.0808                 1.0627
 Frc consts  --      5.6448                 5.6591                 5.7202
 IR Inten    --      0.6497                26.6659                15.5653

                     88                     89                     90
                      A                      A                      A
 Frequencies --   3023.7874              3034.7024              3039.0278
 Red. masses --      1.0690                 1.0667                 1.0381
 Frc consts  --      5.7589                 5.7879                 5.6487
 IR Inten    --     13.2659                 4.5397                21.2779

                     91                     92                     93
                      A                      A                      A
 Frequencies --   3040.3532              3042.2543              3043.9640
 Red. masses --      1.0564                 1.0387                 1.0450
 Frc consts  --      5.7533                 5.6641                 5.7047
 IR Inten    --      8.7618                26.2201                57.0092

                     94                     95                     96
                      A                      A                      A
 Frequencies --   3046.6717              3052.4680              3054.5265
 Red. masses --      1.0528                 1.0496                 1.0936
 Frc consts  --      5.7577                 5.7621                 6.0116
 IR Inten    --     24.1805                29.5185                25.8758

                     97                     98                     99
                      A                      A                      A
 Frequencies --   3089.0027              3099.1056              3100.0051
 Red. masses --      1.0995                 1.1001                 1.1010
 Frc consts  --      6.1812                 6.2250                 6.2337
 IR Inten    --     21.4355                16.0769                 6.9922

                    100                    101                    102
                      A                      A                      A
 Frequencies --   3104.2480              3106.4049              3109.4207
 Red. masses --      1.0997                 1.0993                 1.1025
 Frc consts  --      6.2436                 6.2498                 6.2804
 IR Inten    --      5.2668                73.2157                36.9529

                    103                    104                    105
                      A                      A                      A
 Frequencies --   3110.7380              3112.4839              3114.5617
 Red. masses --      1.0998                 1.1018                 1.0950
 Frc consts  --      6.2704                 6.2888                 6.2584
 IR Inten    --     68.8557                67.7985                23.2047

                    106                    107                    108
                      A                      A                      A
 Frequencies --   3118.4050              3122.1680              3123.7319
 Red. masses --      1.1019                 1.0986                 1.0970
 Frc consts  --      6.3133                 6.3099                 6.3070
 IR Inten    --      5.3181                64.2994                35.5599

 - Thermochemistry -
 -------------------
 Temperature   298.150 Kelvin.  Pressure   1.00000 Atm.
 Atom     1 has atomic number  8 and mass  15.99491

 Molecular mass:   196.18272 amu.
 Principal axes and moments of inertia in atomic units:
                           1         2         3
     Eigenvalues --  1993.201244509.233665916.87138
           X            0.99966   0.02613   0.00130
           Y           -0.02612   0.99962  -0.00834
           Z           -0.00152   0.00830   0.99996
 This molecule is an asymmetric top.
 Rotational symmetry number  1.
 Warning -- assumption of classical behavior for rotation
           may cause significant error
 Rotational temperatures (Kelvin)      0.04345     0.01921     0.01464
 Rotational constants (GHZ):           0.90545     0.40023     0.30502
 Zero-point vibrational energy     919125.9 (Joules/Mol)
                                  219.67635 (Kcal/Mol)
 Warning -- explicit consideration of  25 degrees of freedom as
           vibrations may cause significant error
 Vibrational temperatures:     42.96    76.94    90.07   105.38   125.91
          (Kelvin)            205.44   247.74   268.02   337.44   357.30
                              368.73   382.05   386.01   403.22   451.69
                              464.89   491.83   523.30   564.39   638.09
                              643.24   677.08   753.30   771.83   828.38
                              989.83  1073.58  1094.67  1124.50  1203.10
                             1242.20  1259.13  1317.48  1332.81  1351.34
                             1354.76  1377.00  1395.81  1415.89  1455.65
                             1503.10  1509.17  1515.93  1553.59  1568.33
                             1594.45  1623.92  1649.96  1664.21  1711.12
                             1750.71  1795.85  1818.40  1826.56  1835.48
                             1861.00  1885.56  1916.72  1925.54  1942.35
                             1953.31  1970.31  1993.74  2006.36  2029.14
                             2050.93  2058.71  2059.38  2073.53  2102.84
                             2156.45  2174.88  2176.17  2184.59  2185.32
                             2191.35  2193.56  2200.38  2204.63  2215.41
                             2216.20  2219.93  2233.57  2602.98  4282.76
                             4289.18  4348.74  4350.56  4366.26  4372.48
                             4374.39  4377.13  4379.59  4383.48  4391.82
                             4394.78  4444.39  4458.92  4460.22  4466.32
                             4469.42  4473.76  4475.66  4478.17  4481.16
                             4486.69  4492.10  4494.35

 Zero-point correction=                           0.350077 (Hartree/Particle)
 Thermal correction to Energy=                    0.366277
 Thermal correction to Enthalpy=                  0.367221
 Thermal correction to Gibbs Free Energy=         0.306477
 Sum of electronic and zero-point Energies=           -584.731558
 Sum of electronic and thermal Energies=              -584.715357
 Sum of electronic and thermal Enthalpies=            -584.714413
 Sum of electronic and thermal Free Energies=         -584.775157

                     E (Thermal)             CV                S
                      KCal/Mol        Cal/Mol-Kelvin    Cal/Mol-Kelvin
 Total                  229.842             61.738            127.847
 Electronic               0.000              0.000              0.000
 Translational            0.889              2.981             41.727
 Rotational               0.889              2.981             32.342
 Vibrational            228.065             55.776             53.778
 Vibration     1          0.594              1.984              5.839
 Vibration     2          0.596              1.976              4.684
 Vibration     3          0.597              1.972              4.374
 Vibration     4          0.599              1.967              4.064
 Vibration     5          0.601              1.958              3.715
 Vibration     6          0.616              1.910              2.766
 Vibration     7          0.626              1.877              2.412
 Vibration     8          0.632              1.859              2.265
 Vibration     9          0.654              1.788              1.844
 Vibration    10          0.662              1.766              1.742
 Vibration    11          0.666              1.752              1.687
 Vibration    12          0.671              1.736              1.625
 Vibration    13          0.673              1.731              1.607
 Vibration    14          0.680              1.710              1.532
 Vibration    15          0.702              1.647              1.341
 Vibration    16          0.708              1.629              1.294
 Vibration    17          0.721              1.592              1.204
 Vibration    18          0.737              1.547              1.106
 Vibration    19          0.760              1.487              0.991
 Vibration    20          0.803              1.375              0.816
 Vibration    21          0.806              1.367              0.805
 Vibration    22          0.828              1.315              0.736
 Vibration    23          0.879              1.198              0.602
 Vibration    24          0.891              1.169              0.573
 Vibration    25          0.932              1.084              0.493

 Normal termination of Gaussian 16 at Sat Feb 24 01:50:39 2024.
