 Gaussian 16, Revision A.03,
 Gaussian 16:  EM64M-G16RevA.03 25-Dec-2016

 ---------------------
 # freq b3lyp/6-31g(d)
 ---------------------

 ---------
 good luck
 ---------
 Symbolic Z-matrix:
 Charge =  0 Multiplicity = 1

                         Standard orientation:
 ---------------------------------------------------------------------
 Center     Atomic      Atomic             Coordinates (Angstroms)
 Number     Number       Type             X           Y           Z
 ---------------------------------------------------------------------
      1          8           0       -3.270220   -0.000001   -0.033368
      2          6           0       -2.061554   -0.000001   -0.005481
      3          6           0       -1.062111   -1.150764    0.014095
      4          6           0       -0.195422   -0.801037   -1.228475
      5          6           0       -0.195424    0.801044   -1.228472
      6          6           0       -1.062111    1.150764    0.014101
      7          6           0       -0.236345    0.808978    1.281929
      8          6           0        1.122111    1.451873    1.260876
      9          6           0        1.743040    1.783627    0.126793
     10          6           0        1.143736    1.561591   -1.236310
     11          6           0       -0.236346   -0.808984    1.281926
     12          6           0        1.122110   -1.451881    1.260870
     13          6           0        1.743040   -1.783628    0.126786
     14          6           0        1.143739   -1.561581   -1.236316
     15          1           0       -1.488583   -2.155380    0.009810
     16          1           0       -0.744223   -1.109057   -2.125576
     17          1           0       -0.744226    1.109066   -2.125572
     18          1           0       -1.488584    2.155380    0.009822
     19          1           0       -0.782076    1.146060    2.170552
     20          1           0        1.609277    1.626936    2.218744
     21          1           0        2.726387    2.250697    0.160495
     22          1           0        1.870775    1.055083   -1.885552
     23          1           0        0.983929    2.541748   -1.711964
     24          1           0       -0.782077   -1.146071    2.170546
     25          1           0        1.609275   -1.626951    2.218739
     26          1           0        2.726388   -2.250699    0.160486
     27          1           0        0.983935   -2.541735   -1.711978
     28          1           0        1.870778   -1.055069   -1.885554
 ---------------------------------------------------------------------

 SCF Done:  E(RB3LYP) =  -578.980681301     A.U. after   14 cycles

 The electronic state is 1-A.
 Alpha  occ. eigenvalues --  -19.13820 -10.26436 -10.20109 -10.20102 -10.20095
 Alpha  occ. eigenvalues --  -10.20090 -10.19173 -10.19172 -10.19019 -10.19016
 Alpha  occ. eigenvalues --  -10.18393 -10.18393 -10.18117 -10.18115  -1.03585
 Alpha  occ. eigenvalues --   -0.88788  -0.80997  -0.78627  -0.78109  -0.71716
 Alpha  occ. eigenvalues --   -0.71452  -0.66210  -0.64772  -0.58782  -0.56624
 Alpha  occ. eigenvalues --   -0.53895  -0.53062  -0.50912  -0.49138  -0.45873
 Alpha  occ. eigenvalues --   -0.45666  -0.45573  -0.44235  -0.41707  -0.40712
 Alpha  occ. eigenvalues --   -0.40609  -0.39865  -0.39059  -0.37708  -0.37200
 Alpha  occ. eigenvalues --   -0.37121  -0.36241  -0.33912  -0.32868  -0.31747
 Alpha  occ. eigenvalues --   -0.31272  -0.28792  -0.24426  -0.24286  -0.22332
 Alpha virt. eigenvalues --   -0.00970   0.01853   0.02848   0.06499   0.10312
 Alpha virt. eigenvalues --    0.11348   0.11419   0.12772   0.13791   0.14150
 Alpha virt. eigenvalues --    0.16251   0.16386   0.17102   0.17890   0.18102

 Mulliken charges:
               1
     1  O   -0.448008
     2  C    0.434221
     3  C   -0.183106
     4  C   -0.117247
     5  C   -0.117247
     6  C   -0.183106
     7  C   -0.149471
     8  C   -0.093226
     9  C   -0.104195
    10  C   -0.310596
    11  C   -0.149471
    12  C   -0.093226
    13  C   -0.104194
    14  C   -0.310596
    15  H    0.141885
    16  H    0.138832
    17  H    0.138832
    18  H    0.141885
    19  H    0.141109
    20  H    0.122650
    21  H    0.122114
    22  H    0.148345
    23  H    0.149800
    24  H    0.141109
    25  H    0.122650
    26  H    0.122114
    27  H    0.149800
    28  H    0.148345
 Sum of Mulliken charges =  -0.00000

 Dipole moment (field-independent basis, Debye):
    X=              3.0969    Y=              0.0000    Z=             -0.3473  Tot=              3.1164
 Quadrupole moment (field-independent basis, Debye-Ang):
   XX=            -93.6798   YY=            -80.7275   ZZ=            -76.5009
   XY=             -0.0000   XZ=             -0.9704   YZ=             -0.0000

  Exact polarizability: 127.061   0.000 108.745  -5.439  -0.000 120.047
 Approx polarizability: 195.699   0.000 155.556 -20.766  -0.000 201.194

                      1                      2                      3
                      A                      A                      A
 Frequencies --     54.9049               123.4978               182.8356
 Red. masses --      2.9122                 7.2207                 3.5738
 Frc consts  --      0.0052                 0.0649                 0.0704
 IR Inten    --      0.0797                 3.2530                 0.0204

                      4                      5                      6
                      A                      A                      A
 Frequencies --    237.4810               287.0853               308.9821
 Red. masses --      4.5801                 2.2721                 2.7806
 Frc consts  --      0.1522                 0.1103                 0.1564
 IR Inten    --      0.7243                 0.0061                 0.3265

                      7                      8                      9
                      A                      A                      A
 Frequencies --    382.6481               430.6917               435.9917
 Red. masses --      3.5956                 2.3281                 3.6547
 Frc consts  --      0.3102                 0.2544                 0.4093
 IR Inten    --      0.2927                 0.2418                 2.1987

                     10                     11                     12
                      A                      A                      A
 Frequencies --    441.7462               500.7060               522.3812
 Red. masses --      8.5339                 3.6686                 6.1145
 Frc consts  --      0.9812                 0.5419                 0.9831
 IR Inten    --      0.1197                 0.2657                 0.0193

                     13                     14                     15
                      A                      A                      A
 Frequencies --    534.7713               625.4761               649.2399
 Red. masses --      2.5385                 4.9483                 2.7283
 Frc consts  --      0.4277                 1.1406                 0.6776
 IR Inten    --     21.7299                 0.4880                13.9109

                     16                     17                     18
                      A                      A                      A
 Frequencies --    662.1782               700.0487               712.8054
 Red. masses --      2.3418                 2.5043                 4.0975
 Frc consts  --      0.6050                 0.7231                 1.2266
 IR Inten    --      2.6861                 3.5097                 7.2898

                     19                     20                     21
                      A                      A                      A
 Frequencies --    752.0560               775.5575               785.4807
 Red. masses --      2.9348                 2.1575                 3.6589
 Frc consts  --      0.9780                 0.7646                 1.3301
 IR Inten    --      1.4103                13.0318                 1.1438

                     22                     23                     24
                      A                      A                      A
 Frequencies --    826.0956               871.3586               888.1063
 Red. masses --      3.0464                 4.6153                 2.5166
 Frc consts  --      1.2249                 2.0647                 1.1695
 IR Inten    --      1.3703                 6.1966                 7.4459

                     25                     26                     27
                      A                      A                      A
 Frequencies --    899.5703               920.9724               941.2300
 Red. masses --      2.4362                 2.6294                 2.5354
 Frc consts  --      1.1615                 1.3140                 1.3234
 IR Inten    --      1.5491                 0.8740                 0.5780

                     28                     29                     30
                      A                      A                      A
 Frequencies --    947.0878               973.5671               996.4011
 Red. masses --      2.3937                 1.8083                 1.2558
 Frc consts  --      1.2650                 1.0098                 0.7346
 IR Inten    --      0.7469                 2.7906                 0.6928

                     31                     32                     33
                      A                      A                      A
 Frequencies --    999.5098              1021.5053              1021.9016
 Red. masses --      1.3891                 5.5921                 3.5520
 Frc consts  --      0.8176                 3.4380                 2.1855
 IR Inten    --      0.2517                 0.4166                 0.2857

                     34                     35                     36
                      A                      A                      A
 Frequencies --   1041.6455              1063.6611              1073.2500
 Red. masses --      2.0836                 2.7890                 1.8155
 Frc consts  --      1.3320                 1.8591                 1.2321
 IR Inten    --      1.2715                 0.0074                 6.8993

                     37                     38                     39
                      A                      A                      A
 Frequencies --   1099.3263              1101.1097              1168.4546
 Red. masses --      1.7511                 1.9936                 1.1954
 Frc consts  --      1.2469                 1.4241                 0.9616
 IR Inten    --      3.0265                 1.4884                 0.6607

                     40                     41                     42
                      A                      A                      A
 Frequencies --   1175.4114              1185.6474              1202.7613
 Red. masses --      2.5753                 1.3047                 1.3266
 Frc consts  --      2.0963                 1.0806                 1.1307
 IR Inten    --     30.7476                10.9602                 1.4249

                     43                     44                     45
                      A                      A                      A
 Frequencies --   1219.9364              1226.7786              1243.9090
 Red. masses --      1.1412                 1.2986                 1.1698
 Frc consts  --      1.0006                 1.1515                 1.0664
 IR Inten    --      2.6659                 1.5733                 7.0607

                     46                     47                     48
                      A                      A                      A
 Frequencies --   1261.7999              1277.3231              1290.0533
 Red. masses --      1.1993                 1.5834                 1.3891
 Frc consts  --      1.1251                 1.5221                 1.3621
 IR Inten    --      0.4151                 0.0949                 1.2191

                     49                     50                     51
                      A                      A                      A
 Frequencies --   1309.9441              1327.9515              1334.9088
 Red. masses --      1.2797                 1.3669                 1.4874
 Frc consts  --      1.2938                 1.4202                 1.5616
 IR Inten    --      0.4770                 0.2424                 5.0339

                     52                     53                     54
                      A                      A                      A
 Frequencies --   1348.2204              1371.7843              1373.5353
 Red. masses --      1.4130                 1.5273                 1.3706
 Frc consts  --      1.5133                 1.6934                 1.5235
 IR Inten    --      1.1512                 2.3979                 0.8940

                     55                     56                     57
                      A                      A                      A
 Frequencies --   1379.9964              1400.8989              1407.5595
 Red. masses --      1.6382                 1.5720                 1.3652
 Frc consts  --      1.8381                 1.8177                 1.5935
 IR Inten    --      2.3054                 2.9083                 1.5144

                     58                     59                     60
                      A                      A                      A
 Frequencies --   1437.5922              1439.1068              1493.1463
 Red. masses --      1.6176                 1.5663                 1.0935
 Frc consts  --      1.9696                 1.9112                 1.4364
 IR Inten    --      0.1993                 1.0007                 3.7249

                     61                     62                     63
                      A                      A                      A
 Frequencies --   1519.3943              1737.8743              1740.5268
 Red. masses --      1.0828                 6.3557                 6.1686
 Frc consts  --      1.4728                11.3098                11.0103
 IR Inten    --     10.0978                 0.7076                 3.5231

                     64                     65                     66
                      A                      A                      A
 Frequencies --   1868.7294              3009.7052              3011.7966
 Red. masses --     12.0906                 1.0706                 1.0729
 Frc consts  --     24.8767                 5.7136                 5.7338
 IR Inten    --    313.6424                29.8860                24.3927

                     67                     68                     69
                      A                      A                      A
 Frequencies --   3043.6923              3045.1106              3051.6287
 Red. masses --      1.0879                 1.0898                 1.0859
 Frc consts  --      5.9380                 5.9538                 5.9582
 IR Inten    --      2.4864                25.1494                 4.5392

                     70                     71                     72
                      A                      A                      A
 Frequencies --   3055.4283              3067.3321              3069.0151
 Red. masses --      1.0871                 1.0853                 1.0852
 Frc consts  --      5.9792                 6.0162                 6.0224
 IR Inten    --     39.3101                65.2711                50.2710

                     73                     74                     75
                      A                      A                      A
 Frequencies --   3135.9524              3137.1491              3152.6898
 Red. masses --      1.0879                 1.0898                 1.0841
 Frc consts  --      6.3033                 6.3192                 6.3489
 IR Inten    --     30.7489                14.6004                 0.4759

                     76                     77                     78
                      A                      A                      A
 Frequencies --   3154.1851              3174.9380              3177.1737
 Red. masses --      1.0844                 1.0974                 1.0972
 Frc consts  --      6.3562                 6.5173                 6.5254
 IR Inten    --     17.1187                20.8133                66.4672

 - Thermochemistry -
 -------------------
 Temperature   298.150 Kelvin.  Pressure   1.00000 Atm.
 Atom     1 has atomic number  8 and mass  15.99491

 Molecular mass:   186.10447 amu.
 Principal axes and moments of inertia in atomic units:
                           1         2         3
     Eigenvalues --  1736.095362193.005182554.26223
           X            0.99993  -0.00000  -0.01200
           Y            0.00000   1.00000  -0.00000
           Z            0.01200   0.00000   0.99993
 This molecule is an asymmetric top.
 Rotational symmetry number  1.
 Warning -- assumption of classical behavior for rotation
           may cause significant error
 Rotational temperatures (Kelvin)      0.04989     0.03950     0.03391
 Rotational constants (GHZ):           1.03954     0.82295     0.70656
 Zero-point vibrational energy     632955.6 (Joules/Mol)
                                  151.28001 (Kcal/Mol)
 Warning -- explicit consideration of  13 degrees of freedom as
           vibrations may cause significant error
 Vibrational temperatures:     79.00   177.69   263.06   341.68   413.05
          (Kelvin)            444.56   550.55   619.67   627.29   635.57
                              720.40   751.59   769.42   899.92   934.11
                              952.73  1007.21  1025.57  1082.04  1115.85
                             1130.13  1188.57  1253.69  1277.79  1294.28
                             1325.07  1354.22  1362.65  1400.75  1433.60
                             1438.07  1469.72  1470.29  1498.70  1530.37
                             1544.17  1581.69  1584.25  1681.15  1691.15
                             1705.88  1730.51  1755.22  1765.06  1789.71
                             1815.45  1837.78  1856.10  1884.72  1910.63
                             1920.64  1939.79  1973.69  1976.21  1985.51
                             2015.58  2025.16  2068.37  2070.55  2148.30
                             2186.07  2500.41  2504.23  2688.68  4330.29
                             4333.30  4379.19  4381.24  4390.61  4396.08
                             4413.21  4415.63  4511.94  4513.66  4536.02
                             4538.17  4568.03  4571.24

 Zero-point correction=                           0.241080 (Hartree/Particle)
 Thermal correction to Energy=                    0.251006
 Thermal correction to Enthalpy=                  0.251951
 Thermal correction to Gibbs Free Energy=         0.205802
 Sum of electronic and zero-point Energies=           -578.739601
 Sum of electronic and thermal Energies=              -578.729675
 Sum of electronic and thermal Enthalpies=            -578.728731
 Sum of electronic and thermal Free Energies=         -578.774880

                     E (Thermal)             CV                S
                      KCal/Mol        Cal/Mol-Kelvin    Cal/Mol-Kelvin
 Total                  157.509             43.034             97.128
 Electronic               0.000              0.000              0.000
 Translational            0.889              2.981             41.569
 Rotational               0.889              2.981             30.654
 Vibrational            155.731             37.072             24.905
 Vibration     1          0.596              1.976              4.632
 Vibration     2          0.610              1.929              3.045
 Vibration     3          0.630              1.863              2.299
 Vibration     4          0.656              1.783              1.822
 Vibration     5          0.684              1.698              1.491
 Vibration     6          0.698              1.657              1.368
 Vibration     7          0.752              1.507              1.029
 Vibration     8          0.792              1.403              0.856
 Vibration     9          0.796              1.392              0.839
 Vibration    10          0.802              1.379              0.821
 Vibration    11          0.856              1.248              0.656
 Vibration    12          0.877              1.200              0.604
 Vibration    13          0.890              1.173              0.577

 Normal termination of Gaussian 16 at Sat Feb 24 02:38:00 2024.
