 Gaussian 16, Revision A.03,
 Gaussian 16:  EM64M-G16RevA.03 25-Dec-2016

 ---------------------
 # freq b3lyp/6-31g(d)
 ---------------------

 ---------
 good luck
 ---------
 Symbolic Z-matrix:
 Charge =  0 Multiplicity = 1

                         Standard orientation:
 ---------------------------------------------------------------------
 Center     Atomic      Atomic             Coordinates (Angstroms)
 Number     Number       Type             X           Y           Z
 ---------------------------------------------------------------------
      1          8           0       -0.197164    1.825846   -0.437411
      2          6           0       -0.895339    0.962888    0.063723
      3          6           0       -0.410620   -0.472021    0.297278
      4          6           0        1.054307   -0.687704   -0.106412
      5          6           0        2.068814   -0.038524    0.847083
      6          6           0        3.537054   -0.346772    0.509573
      7          6           0        4.016623    0.234966   -0.825898
      8          6           0       -1.382570   -1.437861   -0.432378
      9          6           0       -2.845639   -1.222797   -0.020104
     10          6           0       -3.289140    0.226899   -0.258213
     11          6           0       -2.346320    1.224155    0.449397
     12          1           0       -0.521668   -0.666949    1.377464
     13          1           0        1.245991   -1.769931   -0.149112
     14          1           0        1.194678   -0.300015   -1.122017
     15          1           0        1.864316   -0.386695    1.870585
     16          1           0        1.916013    1.047263    0.847333
     17          1           0        4.169564    0.048141    1.316202
     18          1           0        3.689725   -1.436166    0.510665
     19          1           0        3.474555   -0.192725   -1.676688
     20          1           0        3.871743    1.321781   -0.855880
     21          1           0        5.083080    0.034583   -0.981733
     22          1           0       -1.280418   -1.291521   -1.517613
     23          1           0       -1.075540   -2.471038   -0.227573
     24          1           0       -3.495907   -1.911105   -0.574333
     25          1           0       -2.963484   -1.470716    1.045059
     26          1           0       -4.318422    0.380506    0.087678
     27          1           0       -3.285476    0.437140   -1.336680
     28          1           0       -2.590189    2.261732    0.203453
     29          1           0       -2.444266    1.099577    1.538176
 ---------------------------------------------------------------------

 SCF Done:  E(RB3LYP) =  -467.146062806     A.U. after   13 cycles

 The electronic state is 1-A.
 Alpha  occ. eigenvalues --  -19.13428 -10.26708 -10.19436 -10.19400 -10.19210
 Alpha  occ. eigenvalues --  -10.19044 -10.18994 -10.17495 -10.17311 -10.16965
 Alpha  occ. eigenvalues --  -10.16444  -1.03252  -0.83475  -0.79295  -0.75913
 Alpha  occ. eigenvalues --   -0.73066  -0.69494  -0.63914  -0.60608  -0.58939
 Alpha  occ. eigenvalues --   -0.55776  -0.52685  -0.47657  -0.46971  -0.44747
 Alpha  occ. eigenvalues --   -0.44219  -0.43555  -0.42696  -0.41418  -0.40052
 Alpha  occ. eigenvalues --   -0.39398  -0.37934  -0.37452  -0.35987  -0.35103
 Alpha  occ. eigenvalues --   -0.34646  -0.33564  -0.33185  -0.32412  -0.31485
 Alpha  occ. eigenvalues --   -0.31276  -0.30027  -0.23457
 Alpha virt. eigenvalues --   -0.01260   0.09104   0.09580   0.10478   0.12129
 Alpha virt. eigenvalues --    0.13206   0.13931   0.14191   0.15425   0.16059
 Alpha virt. eigenvalues --    0.16327   0.16900   0.17290   0.17667   0.18396

 Mulliken charges:
               1
     1  O   -0.451761
     2  C    0.449849
     3  C   -0.169753
     4  C   -0.250435
     5  C   -0.262323
     6  C   -0.249506
     7  C   -0.441800
     8  C   -0.272646
     9  C   -0.265496
    10  C   -0.270170
    11  C   -0.337741
    12  H    0.134941
    13  H    0.120784
    14  H    0.150268
    15  H    0.116643
    16  H    0.155834
    17  H    0.129148
    18  H    0.124364
    19  H    0.144766
    20  H    0.149056
    21  H    0.137850
    22  H    0.141768
    23  H    0.141982
    24  H    0.140256
    25  H    0.132815
    26  H    0.143358
    27  H    0.146212
    28  H    0.161546
    29  H    0.150191
 Sum of Mulliken charges =  -0.00000

 Dipole moment (field-independent basis, Debye):
    X=             -1.7832    Y=             -1.9743    Z=              0.9135  Tot=              2.8129
 Quadrupole moment (field-independent basis, Debye-Ang):
   XX=            -65.8161   YY=            -73.5197   ZZ=            -68.8840
   XY=             -0.6081   XZ=             -0.0830   YZ=              1.9024

  Exact polarizability: 124.865   2.245  99.616  -1.708  -1.037  89.112
 Approx polarizability: 146.406   7.340 148.026  -4.951  -6.432 137.703

                      1                      2                      3
                      A                      A                      A
 Frequencies --     38.4781                62.8095                79.3527
 Red. masses --      2.8965                 3.5985                 2.7706
 Frc consts  --      0.0025                 0.0084                 0.0103
 IR Inten    --      0.3731                 1.1401                 0.5236

                      4                      5                      6
                      A                      A                      A
 Frequencies --    127.7438               131.5980               175.6451
 Red. masses --      2.3729                 2.7384                 1.7752
 Frc consts  --      0.0228                 0.0279                 0.0323
 IR Inten    --      1.1027                 1.0031                 0.1119

                      7                      8                      9
                      A                      A                      A
 Frequencies --    223.4396               270.4413               285.8191
 Red. masses --      1.9026                 1.9882                 2.2462
 Frc consts  --      0.0560                 0.0857                 0.1081
 IR Inten    --      0.3526                 0.7972                 3.2096

                     10                     11                     12
                      A                      A                      A
 Frequencies --    305.3695               363.1793               389.6780
 Red. masses --      1.8021                 2.8279                 2.5879
 Frc consts  --      0.0990                 0.2198                 0.2315
 IR Inten    --      0.3375                 1.1291                 0.2062

                     13                     14                     15
                      A                      A                      A
 Frequencies --    426.0644               470.9445               511.0391
 Red. masses --      2.8684                 2.4801                 2.5445
 Frc consts  --      0.3068                 0.3241                 0.3915
 IR Inten    --      0.7542                 1.8893                 9.8013

                     16                     17                     18
                      A                      A                      A
 Frequencies --    592.1279               671.5564               726.1303
 Red. masses --      2.4961                 3.1885                 2.0526
 Frc consts  --      0.5156                 0.8472                 0.6377
 IR Inten    --      0.7101                 1.0742                 6.4125

                     19                     20                     21
                      A                      A                      A
 Frequencies --    758.2192               795.2809               838.4072
 Red. masses --      1.3035                 1.3249                 1.6573
 Frc consts  --      0.4415                 0.4937                 0.6864
 IR Inten    --      2.5658                 1.8479                 5.9081

                     22                     23                     24
                      A                      A                      A
 Frequencies --    860.1463               881.1481               902.6956
 Red. masses --      2.4349                 2.3821                 1.5691
 Frc consts  --      1.0614                 1.0897                 0.7533
 IR Inten    --      0.1625                 0.4043                 4.1262

                     25                     26                     27
                      A                      A                      A
 Frequencies --    929.5471               939.2377               972.2304
 Red. masses --      2.0170                 1.9187                 1.5377
 Frc consts  --      1.0268                 0.9973                 0.8563
 IR Inten    --      1.8794                 1.0636                 4.7706

                     28                     29                     30
                      A                      A                      A
 Frequencies --    994.5656              1036.1261              1061.4510
 Red. masses --      1.9946                 1.7148                 1.6586
 Frc consts  --      1.1624                 1.0846                 1.1010
 IR Inten    --      1.0012                 4.0390                 5.8081

                     31                     32                     33
                      A                      A                      A
 Frequencies --   1079.0353              1085.9844              1096.5900
 Red. masses --      2.1708                 1.7871                 1.9274
 Frc consts  --      1.4892                 1.2418                 1.3656
 IR Inten    --      5.5101                 5.9095                 2.9518

                     34                     35                     36
                      A                      A                      A
 Frequencies --   1108.9320              1146.9888              1159.2150
 Red. masses --      1.7385                 1.6306                 2.4046
 Frc consts  --      1.2596                 1.2639                 1.9038
 IR Inten    --      2.2245                12.2166                12.9973

                     37                     38                     39
                      A                      A                      A
 Frequencies --   1167.8791              1224.3526              1253.3161
 Red. masses --      1.9951                 1.4192                 1.5123
 Frc consts  --      1.6033                 1.2535                 1.3996
 IR Inten    --      7.2443                 5.8255                14.7086

                     40                     41                     42
                      A                      A                      A
 Frequencies --   1267.1417              1289.6567              1299.2212
 Red. masses --      1.3706                 1.2847                 1.2636
 Frc consts  --      1.2966                 1.2589                 1.2567
 IR Inten    --      0.9101                 0.2357                 0.6992

                     43                     44                     45
                      A                      A                      A
 Frequencies --   1320.9907              1339.1883              1354.1273
 Red. masses --      1.1989                 1.1946                 1.3652
 Frc consts  --      1.2326                 1.2623                 1.4749
 IR Inten    --      3.4420                 0.5292                 3.0908

                     46                     47                     48
                      A                      A                      A
 Frequencies --   1366.2716              1370.7368              1387.2065
 Red. masses --      1.2883                 1.2822                 1.4436
 Frc consts  --      1.4169                 1.4195                 1.6368
 IR Inten    --      0.7536                 4.2072                 6.2341

                     49                     50                     51
                      A                      A                      A
 Frequencies --   1397.4416              1399.3675              1409.3391
 Red. masses --      1.4090                 1.4640                 1.6150
 Frc consts  --      1.6212                 1.6891                 1.8899
 IR Inten    --     11.2983                 1.9159                 8.3817

                     52                     53                     54
                      A                      A                      A
 Frequencies --   1422.4357              1444.0539              1499.3588
 Red. masses --      1.5159                 1.2629                 1.0930
 Frc consts  --      1.8071                 1.5516                 1.4478
 IR Inten    --      1.3188                 5.5145                 5.6497

                     55                     56                     57
                      A                      A                      A
 Frequencies --   1506.5388              1517.9691              1518.5157
 Red. masses --      1.0811                 1.0671                 1.0851
 Frc consts  --      1.4457                 1.4487                 1.4742
 IR Inten    --      0.4539                 0.3558                 5.0738

                     58                     59                     60
                      A                      A                      A
 Frequencies --   1519.1503              1524.6197              1533.6698
 Red. masses --      1.0865                 1.0788                 1.0634
 Frc consts  --      1.4773                 1.4774                 1.4737
 IR Inten    --      5.1244                 2.5386                 4.2732

                     61                     62                     63
                      A                      A                      A
 Frequencies --   1534.0345              1538.4703              1806.2122
 Red. masses --      1.0932                 1.0642                11.1275
 Frc consts  --      1.5157                 1.4841                21.3887
 IR Inten    --      2.1735                 5.4708               148.2225

                     64                     65                     66
                      A                      A                      A
 Frequencies --   2988.9276              3015.9353              3023.5095
 Red. masses --      1.0806                 1.0657                 1.0683
 Frc consts  --      5.6880                 5.7111                 5.7542
 IR Inten    --      7.0818                18.9880                 7.7583

                     67                     68                     69
                      A                      A                      A
 Frequencies --   3024.6105              3026.3487              3028.6893
 Red. masses --      1.0696                 1.0645                 1.0690
 Frc consts  --      5.7651                 5.7443                 5.7777
 IR Inten    --     16.6862                55.0720                 7.8394

                     70                     71                     72
                      A                      A                      A
 Frequencies --   3031.0843              3039.6234              3045.6267
 Red. masses --      1.0635                 1.0617                 1.0369
 Frc consts  --      5.7569                 5.7795                 5.6668
 IR Inten    --     46.1831                32.2626                21.9517

                     73                     74                     75
                      A                      A                      A
 Frequencies --   3055.0887              3075.1390              3077.7231
 Red. masses --      1.0985                 1.0953                 1.0983
 Frc consts  --      6.0410                 6.1024                 6.1296
 IR Inten    --     29.5541                40.2873                45.8978

                     76                     77                     78
                      A                      A                      A
 Frequencies --   3081.9419              3085.4974              3097.3006
 Red. masses --      1.0907                 1.1031                 1.0990
 Frc consts  --      6.1037                 6.1876                 6.2118
 IR Inten    --      4.3765                53.8693                47.9540

                     79                     80                     81
                      A                      A                      A
 Frequencies --   3109.6209              3115.5859              3119.1104
 Red. masses --      1.1022                 1.1015                 1.0960
 Frc consts  --      6.2792                 6.2998                 6.2823
 IR Inten    --     49.4860                52.1871                21.8971

 - Thermochemistry -
 -------------------
 Temperature   298.150 Kelvin.  Pressure   1.00000 Atm.
 Atom     1 has atomic number  8 and mass  15.99491

 Molecular mass:   154.13577 amu.
 Principal axes and moments of inertia in atomic units:
                           1         2         3
     Eigenvalues --   775.117053391.581293797.52659
           X            0.99999   0.00300  -0.00354
           Y           -0.00294   0.99984   0.01740
           Z            0.00359  -0.01739   0.99984
 This molecule is an asymmetric top.
 Rotational symmetry number  1.
 Warning -- assumption of classical behavior for rotation
           may cause significant error
 Rotational temperatures (Kelvin)      0.11174     0.02554     0.02281
 Rotational constants (GHZ):           2.32835     0.53212     0.47524
 Zero-point vibrational energy     698319.2 (Joules/Mol)
                                  166.90228 (Kcal/Mol)
 Warning -- explicit consideration of  16 degrees of freedom as
           vibrations may cause significant error
 Vibrational temperatures:     55.36    90.37   114.17   183.79   189.34
          (Kelvin)            252.71   321.48   389.10   411.23   439.36
                              522.53   560.66   613.01   677.58   735.27
                              851.94   966.22  1044.74  1090.91  1144.23
                             1206.28  1237.56  1267.78  1298.78  1337.41
                             1351.35  1398.82  1430.96  1490.75  1527.19
                             1552.49  1562.49  1577.75  1595.51  1650.26
                             1667.85  1680.32  1761.57  1803.24  1823.13
                             1855.53  1869.29  1900.61  1926.79  1948.29
                             1965.76  1972.18  1995.88  2010.61  2013.38
                             2027.72  2046.57  2077.67  2157.24  2167.57
                             2184.02  2184.81  2185.72  2193.59  2206.61
                             2207.13  2213.52  2598.74  4300.40  4339.26
                             4350.16  4351.74  4354.24  4357.61  4361.05
                             4373.34  4381.98  4395.59  4424.44  4428.16
                             4434.23  4439.34  4456.32  4474.05  4482.63
                             4487.70

 Zero-point correction=                           0.265976 (Hartree/Particle)
 Thermal correction to Energy=                    0.277855
 Thermal correction to Enthalpy=                  0.278799
 Thermal correction to Gibbs Free Energy=         0.227497
 Sum of electronic and zero-point Energies=           -466.880087
 Sum of electronic and thermal Energies=              -466.868208
 Sum of electronic and thermal Enthalpies=            -466.867264
 Sum of electronic and thermal Free Energies=         -466.918566

                     E (Thermal)             CV                S
                      KCal/Mol        Cal/Mol-Kelvin    Cal/Mol-Kelvin
 Total                  174.357             44.679            107.974
 Electronic               0.000              0.000              0.000
 Translational            0.889              2.981             41.008
 Rotational               0.889              2.981             30.680
 Vibrational            172.579             38.717             36.286
 Vibration     1          0.594              1.982              5.336
 Vibration     2          0.597              1.972              4.367
 Vibration     3          0.600              1.963              3.907
 Vibration     4          0.611              1.925              2.980
 Vibration     5          0.612              1.922              2.923
 Vibration     6          0.628              1.872              2.374
 Vibration     7          0.649              1.805              1.931
 Vibration     8          0.674              1.728              1.593
 Vibration     9          0.684              1.700              1.499
 Vibration    10          0.696              1.664              1.387
 Vibration    11          0.737              1.548              1.108
 Vibration    12          0.758              1.492              1.001
 Vibration    13          0.788              1.414              0.872
 Vibration    14          0.828              1.315              0.735
 Vibration    15          0.866              1.226              0.631
 Vibration    16          0.950              1.049              0.463

 Normal termination of Gaussian 16 at Thu Feb 22 10:32:42 2024.
