 Gaussian 16, Revision A.03,
 Gaussian 16:  EM64M-G16RevA.03 25-Dec-2016

 ---------------------
 # freq b3lyp/6-31g(d)
 ---------------------

 ---------
 good luck
 ---------
 Symbolic Z-matrix:
 Charge =  0 Multiplicity = 1

                         Standard orientation:
 ---------------------------------------------------------------------
 Center     Atomic      Atomic             Coordinates (Angstroms)
 Number     Number       Type             X           Y           Z
 ---------------------------------------------------------------------
      1          8           0       -1.311538    2.216845   -0.315607
      2          6           0       -1.510523    1.093711    0.109517
      3          6           0       -0.389926    0.059235    0.272169
      4          6           0        0.968023    0.609163   -0.187339
      5          6           0        2.172104   -0.255790    0.207967
      6          6           0        3.513959    0.360336   -0.210743
      7          6           0        4.721607   -0.494923    0.185408
      8          6           0       -0.805660   -1.258903   -0.430959
      9          6           0       -2.180143   -1.765762    0.028205
     10          6           0       -3.268863   -0.707455   -0.189949
     11          6           0       -2.903528    0.618794    0.507388
     12          1           0       -0.339298   -0.157549    1.353814
     13          1           0        1.090010    1.616423    0.228050
     14          1           0        0.948028    0.742918   -1.277850
     15          1           0        2.088251   -1.256644   -0.238668
     16          1           0        2.170914   -0.408570    1.298248
     17          1           0        3.515821    0.515728   -1.298890
     18          1           0        3.607888    1.359240    0.237863
     19          1           0        4.766158   -0.639704    1.272012
     20          1           0        5.662669   -0.027711   -0.126467
     21          1           0        4.673819   -1.488293   -0.277904
     22          1           0       -0.043576   -2.025424   -0.249840
     23          1           0       -0.823189   -1.087293   -1.517442
     24          1           0       -2.436603   -2.687147   -0.509472
     25          1           0       -2.134480   -2.029345    1.095254
     26          1           0       -4.238560   -1.064689    0.177278
     27          1           0       -3.389109   -0.525249   -1.266903
     28          1           0       -2.910680    0.463152    1.597039
     29          1           0       -3.618052    1.414965    0.278742
 ---------------------------------------------------------------------

 SCF Done:  E(RB3LYP) =  -467.146684796     A.U. after   13 cycles

 The electronic state is 1-A.
 Alpha  occ. eigenvalues --  -19.13286 -10.26595 -10.19407 -10.19333 -10.19091
 Alpha  occ. eigenvalues --  -10.18987 -10.18933 -10.17741 -10.17719 -10.17469
 Alpha  occ. eigenvalues --  -10.17127  -1.03144  -0.83428  -0.79607  -0.76156
 Alpha  occ. eigenvalues --   -0.73075  -0.69930  -0.64136  -0.60014  -0.58724
 Alpha  occ. eigenvalues --   -0.57192  -0.52505  -0.47270  -0.46727  -0.46007
 Alpha  occ. eigenvalues --   -0.44172  -0.43612  -0.42680  -0.41291  -0.40210
 Alpha  occ. eigenvalues --   -0.39603  -0.39281  -0.37150  -0.35931  -0.35230
 Alpha  occ. eigenvalues --   -0.33911  -0.33558  -0.33333  -0.32525  -0.32203
 Alpha  occ. eigenvalues --   -0.31303  -0.30874  -0.23363
 Alpha virt. eigenvalues --   -0.01117   0.09042   0.09542   0.10244   0.11613
 Alpha virt. eigenvalues --    0.12478   0.13187   0.14596   0.15052   0.15690
 Alpha virt. eigenvalues --    0.16390   0.16674   0.17323   0.17728   0.18944

 Mulliken charges:
               1
     1  O   -0.450427
     2  C    0.447330
     3  C   -0.175231
     4  C   -0.251499
     5  C   -0.257389
     6  C   -0.246684
     7  C   -0.441962
     8  C   -0.271939
     9  C   -0.266239
    10  C   -0.268417
    11  C   -0.340354
    12  H    0.136648
    13  H    0.150690
    14  H    0.136089
    15  H    0.128580
    16  H    0.123862
    17  H    0.132490
    18  H    0.133817
    19  H    0.140499
    20  H    0.142765
    21  H    0.139909
    22  H    0.145977
    23  H    0.139365
    24  H    0.139664
    25  H    0.132449
    26  H    0.142524
    27  H    0.144802
    28  H    0.150927
    29  H    0.161755
 Sum of Mulliken charges =  -0.00000

 Dipole moment (field-independent basis, Debye):
    X=             -0.4527    Y=             -2.6529    Z=              0.8072  Tot=              2.8097
 Quadrupole moment (field-independent basis, Debye-Ang):
   XX=            -66.6633   YY=            -76.7270   ZZ=            -68.1437
   XY=              3.7883   XZ=             -1.3142   YZ=              2.0594

  Exact polarizability: 125.106   1.759 102.568  -1.246  -1.694  87.442
 Approx polarizability: 140.327   3.075 153.411  -1.624  -6.846 138.135

                      1                      2                      3
                      A                      A                      A
 Frequencies --     44.3642                61.4641                79.0745
 Red. masses --      2.0507                 2.2601                 3.1898
 Frc consts  --      0.0024                 0.0050                 0.0118
 IR Inten    --      0.0834                 0.5716                 1.0064

                      4                      5                      6
                      A                      A                      A
 Frequencies --     95.9529               130.0134               159.6709
 Red. masses --      3.8060                 2.2781                 2.0853
 Frc consts  --      0.0206                 0.0227                 0.0313
 IR Inten    --      1.2147                 0.3232                 0.3507

                      7                      8                      9
                      A                      A                      A
 Frequencies --    238.6567               247.7686               257.8504
 Red. masses --      3.0887                 1.2398                 3.5685
 Frc consts  --      0.1036                 0.0448                 0.1398
 IR Inten    --      3.4731                 0.6027                 0.0883

                     10                     11                     12
                      A                      A                      A
 Frequencies --    305.9916               328.5741               409.9877
 Red. masses --      1.7786                 2.3118                 2.9479
 Frc consts  --      0.0981                 0.1471                 0.2919
 IR Inten    --      0.0795                 0.6635                 2.0232

                     13                     14                     15
                      A                      A                      A
 Frequencies --    430.2985               449.7155               526.3841
 Red. masses --      3.0233                 2.9480                 2.4317
 Frc consts  --      0.3298                 0.3513                 0.3970
 IR Inten    --      0.9230                 2.9142                 7.4048

                     16                     17                     18
                      A                      A                      A
 Frequencies --    584.5564               668.8631               737.5188
 Red. masses --      3.1197                 3.0125                 1.1300
 Frc consts  --      0.6281                 0.7941                 0.3622
 IR Inten    --      1.6245                 1.7924                 3.1742

                     19                     20                     21
                      A                      A                      A
 Frequencies --    757.3343               787.6714               840.8269
 Red. masses --      2.2360                 1.2536                 1.7117
 Frc consts  --      0.7556                 0.4582                 0.7130
 IR Inten    --      3.0918                 0.3389                 7.7887

                     22                     23                     24
                      A                      A                      A
 Frequencies --    859.7792               878.5294               907.8893
 Red. masses --      2.2908                 2.2952                 1.4129
 Frc consts  --      0.9977                 1.0437                 0.6862
 IR Inten    --      0.2242                 2.7796                 2.3201

                     25                     26                     27
                      A                      A                      A
 Frequencies --    913.1771               948.5118               969.9996
 Red. masses --      1.8358                 1.3413                 2.2681
 Frc consts  --      0.9020                 0.7110                 1.2574
 IR Inten    --      1.6746                 1.9072                 1.0542

                     28                     29                     30
                      A                      A                      A
 Frequencies --   1025.1203              1032.3997              1066.4400
 Red. masses --      2.0651                 2.1374                 1.4468
 Frc consts  --      1.2786                 1.3423                 0.9695
 IR Inten    --      2.9726                 6.7667                 0.2928

                     31                     32                     33
                      A                      A                      A
 Frequencies --   1068.8025              1083.2665              1089.1515
 Red. masses --      2.3330                 1.9784                 1.5588
 Frc consts  --      1.5702                 1.3678                 1.0895
 IR Inten    --      2.9533                 1.8563                 4.6901

                     34                     35                     36
                      A                      A                      A
 Frequencies --   1111.7028              1147.3293              1156.1097
 Red. masses --      2.0761                 1.8594                 2.2478
 Frc consts  --      1.5118                 1.4421                 1.7701
 IR Inten    --      4.0937                11.2551                26.9148

                     37                     38                     39
                      A                      A                      A
 Frequencies --   1178.6412              1236.1414              1261.6203
 Red. masses --      2.0287                 1.5386                 1.4547
 Frc consts  --      1.6605                 1.3852                 1.3642
 IR Inten    --      4.7198                 8.7064                 3.5648

                     40                     41                     42
                      A                      A                      A
 Frequencies --   1276.2107              1287.9791              1297.3291
 Red. masses --      1.4063                 1.2927                 1.2527
 Frc consts  --      1.3495                 1.2634                 1.2422
 IR Inten    --      2.5067                 0.1689                 1.8791

                     43                     44                     45
                      A                      A                      A
 Frequencies --   1322.8629              1345.7179              1348.4303
 Red. masses --      1.2407                 1.2955                 1.2204
 Frc consts  --      1.2792                 1.3823                 1.3074
 IR Inten    --      0.1667                 6.8388                 6.2703

                     46                     47                     48
                      A                      A                      A
 Frequencies --   1350.8566              1360.2307              1385.4166
 Red. masses --      1.1680                 1.3070                 1.3991
 Frc consts  --      1.2558                 1.4248                 1.5822
 IR Inten    --      0.7747                 2.3284                 6.5572

                     49                     50                     51
                      A                      A                      A
 Frequencies --   1388.0712              1399.9998              1407.8547
 Red. masses --      1.4389                 1.4878                 1.6115
 Frc consts  --      1.6334                 1.7181                 1.8819
 IR Inten    --      5.2224                 1.0817                 1.5701

                     52                     53                     54
                      A                      A                      A
 Frequencies --   1427.1876              1441.4177              1497.9863
 Red. masses --      1.6334                 1.2493                 1.0912
 Frc consts  --      1.9602                 1.5293                 1.4427
 IR Inten    --      4.0044                 0.9797                 5.7473

                     55                     56                     57
                      A                      A                      A
 Frequencies --   1511.2538              1516.7999              1518.7034
 Red. masses --      1.0791                 1.0721                 1.0846
 Frc consts  --      1.4521                 1.4532                 1.4738
 IR Inten    --      1.8838                 0.2583                 5.1765

                     58                     59                     60
                      A                      A                      A
 Frequencies --   1519.4358              1529.1689              1530.0345
 Red. masses --      1.0851                 1.0719                 1.0414
 Frc consts  --      1.4760                 1.4767                 1.4364
 IR Inten    --      4.3232                 0.3739                 5.9852

                     61                     62                     63
                      A                      A                      A
 Frequencies --   1534.1025              1541.8366              1808.2701
 Red. masses --      1.0946                 1.0874                11.4961
 Frc consts  --      1.5179                 1.5231                22.1476
 IR Inten    --      0.8362                 3.6010               154.3590

                     64                     65                     66
                      A                      A                      A
 Frequencies --   2978.4061              3011.8619              3022.7300
 Red. masses --      1.0802                 1.0616                 1.0700
 Frc consts  --      5.6458                 5.6740                 5.7603
 IR Inten    --      8.9225                12.2295                13.0860

                     67                     68                     69
                      A                      A                      A
 Frequencies --   3024.1020              3027.5993              3029.4532
 Red. masses --      1.0696                 1.0607                 1.0649
 Frc consts  --      5.7635                 5.7287                 5.7580
 IR Inten    --      7.3415                31.6007                18.6077

                     70                     71                     72
                      A                      A                      A
 Frequencies --   3038.4608              3039.4030              3041.0997
 Red. masses --      1.0620                 1.0710                 1.0520
 Frc consts  --      5.7767                 5.8293                 5.7322
 IR Inten    --     29.5599                13.1704                39.0487

                     73                     74                     75
                      A                      A                      A
 Frequencies --   3044.3653              3063.0600              3076.4272
 Red. masses --      1.0733                 1.1023                 1.0948
 Frc consts  --      5.8607                 6.0933                 6.1048
 IR Inten    --     33.6355                21.2215                51.6763

                     76                     77                     78
                      A                      A                      A
 Frequencies --   3082.7435              3087.8977              3090.7576
 Red. masses --      1.1011                 1.0988                 1.0999
 Frc consts  --      6.1653                 6.1730                 6.1908
 IR Inten    --     44.7759                47.2166                33.2982

                     79                     80                     81
                      A                      A                      A
 Frequencies --   3105.1046              3110.8114              3117.4635
 Red. masses --      1.1028                 1.1017                 1.0950
 Frc consts  --      6.2647                 6.2814                 6.2702
 IR Inten    --     76.5961                44.4289                22.1644

 - Thermochemistry -
 -------------------
 Temperature   298.150 Kelvin.  Pressure   1.00000 Atm.
 Atom     1 has atomic number  8 and mass  15.99491

 Molecular mass:   154.13577 amu.
 Principal axes and moments of inertia in atomic units:
                           1         2         3
     Eigenvalues --   809.696653707.180874322.63679
           X            0.99996   0.00836  -0.00063
           Y           -0.00836   0.99994   0.00634
           Z            0.00068  -0.00633   0.99998
 This molecule is an asymmetric top.
 Rotational symmetry number  1.
 Warning -- assumption of classical behavior for rotation
           may cause significant error
 Rotational temperatures (Kelvin)      0.10697     0.02336     0.02004
 Rotational constants (GHZ):           2.22891     0.48682     0.41751
 Zero-point vibrational energy     697518.9 (Joules/Mol)
                                  166.71102 (Kcal/Mol)
 Warning -- explicit consideration of  16 degrees of freedom as
           vibrations may cause significant error
 Vibrational temperatures:     63.83    88.43   113.77   138.05   187.06
          (Kelvin)            229.73   343.37   356.48   370.99   440.25
                              472.74   589.88   619.10   647.04   757.35
                              841.05   962.34  1061.13  1089.64  1133.28
                             1209.76  1237.03  1264.01  1306.25  1313.86
                             1364.70  1395.61  1474.92  1485.39  1534.37
                             1537.77  1558.58  1567.05  1599.49  1650.75
                             1663.38  1695.80  1778.53  1815.19  1836.18
                             1853.11  1866.57  1903.30  1936.19  1940.09
                             1943.58  1957.07  1993.31  1997.12  2014.29
                             2025.59  2053.40  2073.88  2155.27  2174.36
                             2182.34  2185.08  2186.13  2200.13  2201.38
                             2207.23  2218.36  2601.70  4285.26  4333.40
                             4349.03  4351.01  4356.04  4358.71  4371.67
                             4373.02  4375.46  4380.16  4407.06  4426.29
                             4435.38  4442.80  4446.91  4467.55  4475.76
                             4485.33

 Zero-point correction=                           0.265671 (Hartree/Particle)
 Thermal correction to Energy=                    0.277699
 Thermal correction to Enthalpy=                  0.278643
 Thermal correction to Gibbs Free Energy=         0.226820
 Sum of electronic and zero-point Energies=           -466.881014
 Sum of electronic and thermal Energies=              -466.868986
 Sum of electronic and thermal Enthalpies=            -466.868042
 Sum of electronic and thermal Free Energies=         -466.919865

                     E (Thermal)             CV                S
                      KCal/Mol        Cal/Mol-Kelvin    Cal/Mol-Kelvin
 Total                  174.259             44.813            109.070
 Electronic               0.000              0.000              0.000
 Translational            0.889              2.981             41.008
 Rotational               0.889              2.981             30.940
 Vibrational            172.481             38.851             37.122
 Vibration     1          0.595              1.980              5.054
 Vibration     2          0.597              1.973              4.410
 Vibration     3          0.600              1.963              3.914
 Vibration     4          0.603              1.952              3.535
 Vibration     5          0.612              1.923              2.946
 Vibration     6          0.622              1.892              2.554
 Vibration     7          0.657              1.781              1.813
 Vibration     8          0.661              1.766              1.746
 Vibration     9          0.667              1.749              1.676
 Vibration    10          0.696              1.662              1.384
 Vibration    11          0.712              1.618              1.267
 Vibration    12          0.774              1.449              0.927
 Vibration    13          0.791              1.404              0.858
 Vibration    14          0.809              1.362              0.797
 Vibration    15          0.881              1.192              0.595
 Vibration    16          0.942              1.065              0.477

 Normal termination of Gaussian 16 at Thu Feb 22 10:35:12 2024.
