 Gaussian 16, Revision A.03,
 Gaussian 16:  EM64M-G16RevA.03 25-Dec-2016

 ---------------------
 # freq b3lyp/6-31g(d)
 ---------------------

 ---------
 good luck
 ---------
 Symbolic Z-matrix:
 Charge =  0 Multiplicity = 1

                         Standard orientation:
 ---------------------------------------------------------------------
 Center     Atomic      Atomic             Coordinates (Angstroms)
 Number     Number       Type             X           Y           Z
 ---------------------------------------------------------------------
      1          8           0       -0.315716    1.757247   -0.760361
      2          6           0       -0.945972    0.958642   -0.090823
      3          6           0       -0.457004   -0.466841    0.187649
      4          6           0        0.925185   -0.758384   -0.411836
      5          6           0        2.088230   -0.066779    0.312595
      6          6           0        3.456750   -0.396992   -0.296739
      7          6           0        4.619528    0.287755    0.428746
      8          6           0       -1.545298   -1.459055   -0.303215
      9          6           0       -2.925106   -1.166986    0.303078
     10          6           0       -3.373671    0.271337    0.011502
     11          6           0       -2.317236    1.293783    0.483308
     12          1           0       -0.405474   -0.570063    1.284817
     13          1           0        0.923090   -0.454607   -1.466373
     14          1           0        1.087816   -1.845676   -0.395792
     15          1           0        1.932799    1.018179    0.288359
     16          1           0        2.085040   -0.363745    1.372909
     17          1           0        3.608452   -1.486227   -0.285574
     18          1           0        3.460365   -0.099657   -1.354786
     19          1           0        4.664446   -0.016358    1.482035
     20          1           0        5.582474    0.037184   -0.031071
     21          1           0        4.512228    1.379072    0.404578
     22          1           0       -1.606038   -1.404769   -1.399994
     23          1           0       -1.229068   -2.480932   -0.059459
     24          1           0       -2.884950   -1.323834    1.391052
     25          1           0       -3.663828   -1.878008   -0.087477
     26          1           0       -4.335924    0.483773    0.492752
     27          1           0       -3.529347    0.392974   -1.069369
     28          1           0       -2.251523    1.260959    1.581119
     29          1           0       -2.577258    2.314874    0.189569
 ---------------------------------------------------------------------

 SCF Done:  E(RB3LYP) =  -467.147470567     A.U. after   13 cycles

 The electronic state is 1-A.
 Alpha  occ. eigenvalues --  -19.13438 -10.26717 -10.19439 -10.19408 -10.19213
 Alpha  occ. eigenvalues --  -10.19047 -10.19000 -10.17542 -10.17274 -10.16943
 Alpha  occ. eigenvalues --  -10.16680  -1.03262  -0.83479  -0.79321  -0.76038
 Alpha  occ. eigenvalues --   -0.73123  -0.69780  -0.63478  -0.60316  -0.58743
 Alpha  occ. eigenvalues --   -0.56700  -0.52620  -0.47814  -0.46879  -0.45139
 Alpha  occ. eigenvalues --   -0.44442  -0.43407  -0.42396  -0.41034  -0.40053
 Alpha  occ. eigenvalues --   -0.39180  -0.39029  -0.36817  -0.36130  -0.35131
 Alpha  occ. eigenvalues --   -0.34414  -0.33411  -0.33178  -0.32602  -0.31868
 Alpha  occ. eigenvalues --   -0.31480  -0.30034  -0.23469
 Alpha virt. eigenvalues --   -0.01267   0.09088   0.09925   0.10435   0.11684
 Alpha virt. eigenvalues --    0.13214   0.13815   0.14084   0.15572   0.15832
 Alpha virt. eigenvalues --    0.16251   0.16471   0.17286   0.17858   0.18808

 Mulliken charges:
               1
     1  O   -0.451885
     2  C    0.449758
     3  C   -0.169390
     4  C   -0.250865
     5  C   -0.258455
     6  C   -0.247504
     7  C   -0.441747
     8  C   -0.272515
     9  C   -0.265529
    10  C   -0.270161
    11  C   -0.337793
    12  H    0.135355
    13  H    0.145699
    14  H    0.121792
    15  H    0.155819
    16  H    0.116498
    17  H    0.124999
    18  H    0.134930
    19  H    0.138104
    20  H    0.139838
    21  H    0.144639
    22  H    0.141997
    23  H    0.141963
    24  H    0.132774
    25  H    0.140277
    26  H    0.143366
    27  H    0.146224
    28  H    0.150229
    29  H    0.161584
 Sum of Mulliken charges =  -0.00000

 Dipole moment (field-independent basis, Debye):
    X=             -1.6865    Y=             -1.8676    Z=              1.2784  Tot=              2.8225
 Quadrupole moment (field-independent basis, Debye-Ang):
   XX=            -65.9964   YY=            -73.0524   ZZ=            -69.5020
   XY=             -0.5184   XZ=             -0.6861   YZ=              2.4447

  Exact polarizability: 126.130   2.003  99.796  -3.083  -1.190  89.078
 Approx polarizability: 144.357   5.525 146.325  -6.675  -8.512 141.355

                      1                      2                      3
                      A                      A                      A
 Frequencies --     56.1098                65.3695                67.5096
 Red. masses --      3.3195                 3.1904                 1.7493
 Frc consts  --      0.0062                 0.0080                 0.0047
 IR Inten    --      0.8481                 0.6897                 0.2503

                      4                      5                      6
                      A                      A                      A
 Frequencies --    110.5816               139.9453               166.7106
 Red. masses --      3.5867                 2.4643                 2.2121
 Frc consts  --      0.0258                 0.0284                 0.0362
 IR Inten    --      1.4201                 0.4225                 0.7348

                      7                      8                      9
                      A                      A                      A
 Frequencies --    241.3554               256.8361               272.0949
 Red. masses --      1.3798                 2.2592                 3.0042
 Frc consts  --      0.0474                 0.0878                 0.1310
 IR Inten    --      0.6882                 0.3617                 0.5276

                     10                     11                     12
                      A                      A                      A
 Frequencies --    298.0363               305.4293               424.3954
 Red. masses --      2.8351                 1.7894                 2.7591
 Frc consts  --      0.1484                 0.0984                 0.2928
 IR Inten    --      3.0031                 0.5769                 0.6412

                     13                     14                     15
                      A                      A                      A
 Frequencies --    442.5985               450.7548               509.8690
 Red. masses --      2.6306                 3.3613                 2.4569
 Frc consts  --      0.3036                 0.4024                 0.3763
 IR Inten    --      0.5988                 2.7915                 7.6139

                     16                     17                     18
                      A                      A                      A
 Frequencies --    589.8198               671.2245               723.3180
 Red. masses --      2.7297                 3.1554                 1.8206
 Frc consts  --      0.5595                 0.8376                 0.5612
 IR Inten    --      1.0581                 1.1196                 8.2404

                     19                     20                     21
                      A                      A                      A
 Frequencies --    747.6006               797.4882               843.7209
 Red. masses --      1.2283                 1.2854                 1.5664
 Frc consts  --      0.4045                 0.4817                 0.6570
 IR Inten    --      0.8300                 0.8214                 7.3191

                     22                     23                     24
                      A                      A                      A
 Frequencies --    859.9577               892.6567               908.0984
 Red. masses --      2.3965                 2.1735                 1.5319
 Frc consts  --      1.0442                 1.0204                 0.7443
 IR Inten    --      0.1722                 1.5502                 2.0006

                     25                     26                     27
                      A                      A                      A
 Frequencies --    933.8962               940.4645               966.0922
 Red. masses --      1.7518                 1.7433                 1.6954
 Frc consts  --      0.9002                 0.9085                 0.9323
 IR Inten    --      2.5485                 1.9645                 3.2299

                     28                     29                     30
                      A                      A                      A
 Frequencies --   1021.4169              1041.7320              1064.5435
 Red. masses --      2.9024                 1.9457                 1.4172
 Frc consts  --      1.7841                 1.2441                 0.9462
 IR Inten    --      1.4845                 2.5614                 5.1121

                     31                     32                     33
                      A                      A                      A
 Frequencies --   1071.6348              1082.7572              1089.2122
 Red. masses --      2.2197                 2.1470                 1.8175
 Frc consts  --      1.5019                 1.4830                 1.2705
 IR Inten    --      0.9092                 3.0807                12.9548

                     34                     35                     36
                      A                      A                      A
 Frequencies --   1109.5388              1146.3181              1161.9192
 Red. masses --      1.7260                 1.7247                 2.5765
 Frc consts  --      1.2519                 1.3353                 2.0494
 IR Inten    --      1.1215                18.3303                11.7479

                     37                     38                     39
                      A                      A                      A
 Frequencies --   1170.0291              1231.1003              1260.9496
 Red. masses --      1.8506                 1.4955                 1.4849
 Frc consts  --      1.4927                 1.3355                 1.3911
 IR Inten    --      2.6619                15.6265                 5.1064

                     40                     41                     42
                      A                      A                      A
 Frequencies --   1266.7439              1289.8571              1297.8961
 Red. masses --      1.3600                 1.2785                 1.2609
 Frc consts  --      1.2858                 1.2532                 1.2515
 IR Inten    --      0.5215                 0.1107                 1.3538

                     43                     44                     45
                      A                      A                      A
 Frequencies --   1327.1896              1331.5535              1350.1918
 Red. masses --      1.2429                 1.2714                 1.0790
 Frc consts  --      1.2899                 1.3281                 1.1589
 IR Inten    --      4.3637                 0.2666                 1.8338

                     46                     47                     48
                      A                      A                      A
 Frequencies --   1356.1527              1370.7489              1386.8476
 Red. masses --      1.3591                 1.2899                 1.4384
 Frc consts  --      1.4727                 1.4279                 1.6300
 IR Inten    --      4.3798                 3.8985                 5.9189

                     49                     50                     51
                      A                      A                      A
 Frequencies --   1394.2861              1398.8732              1410.6972
 Red. masses --      1.4194                 1.4826                 1.6488
 Frc consts  --      1.6257                 1.7094                 1.9333
 IR Inten    --      2.7736                 1.5547                 8.8497

                     52                     53                     54
                      A                      A                      A
 Frequencies --   1425.4456              1440.8596              1499.2100
 Red. masses --      1.5900                 1.2471                 1.0930
 Frc consts  --      1.9035                 1.5255                 1.4474
 IR Inten    --      2.2279                 1.1234                 5.5786

                     55                     56                     57
                      A                      A                      A
 Frequencies --   1507.0829              1517.7947              1518.5804
 Red. masses --      1.0839                 1.0646                 1.0856
 Frc consts  --      1.4504                 1.4450                 1.4750
 IR Inten    --      1.4429                 0.2661                 4.6393

                     58                     59                     60
                      A                      A                      A
 Frequencies --   1519.5231              1528.6181              1529.9747
 Red. masses --      1.0887                 1.0704                 1.0449
 Frc consts  --      1.4810                 1.4736                 1.4411
 IR Inten    --      7.2808                 0.7828                 5.4255

                     61                     62                     63
                      A                      A                      A
 Frequencies --   1533.7979              1541.5743              1806.2240
 Red. masses --      1.0953                 1.0853                11.1230
 Frc consts  --      1.5181                 1.5196                21.3804
 IR Inten    --      0.9407                 3.0450               149.4781

                     64                     65                     66
                      A                      A                      A
 Frequencies --   2989.1880              3012.7347              3021.7061
 Red. masses --      1.0806                 1.0690                 1.0620
 Frc consts  --      5.6888                 5.7165                 5.7130
 IR Inten    --      6.5785                15.6788                14.7771

                     67                     68                     69
                      A                      A                      A
 Frequencies --   3024.4086              3026.9052              3028.5596
 Red. masses --      1.0689                 1.0641                 1.0691
 Frc consts  --      5.7608                 5.7439                 5.7776
 IR Inten    --     11.2750                26.3212                 5.4153

                     70                     71                     72
                      A                      A                      A
 Frequencies --   3031.7170              3039.5938              3040.4186
 Red. masses --      1.0641                 1.0617                 1.0365
 Frc consts  --      5.7622                 5.7794                 5.6452
 IR Inten    --     62.3769                34.1908                33.3017

                     73                     74                     75
                      A                      A                      A
 Frequencies --   3053.0804              3072.5199              3076.1091
 Red. masses --      1.0978                 1.0937                 1.0940
 Frc consts  --      6.0293                 6.0835                 6.0992
 IR Inten    --     18.4248                15.8525                36.9143

                     76                     77                     78
                      A                      A                      A
 Frequencies --   3078.4304              3085.4844              3093.8698
 Red. masses --      1.0996                 1.1034                 1.0992
 Frc consts  --      6.1395                 6.1890                 6.1993
 IR Inten    --     45.8193                54.7901                19.1955

                     79                     80                     81
                      A                      A                      A
 Frequencies --   3106.2379              3110.1353              3119.1249
 Red. masses --      1.1023                 1.1021                 1.0960
 Frc consts  --      6.2663                 6.2809                 6.2822
 IR Inten    --     74.7770                50.3633                22.1044

 - Thermochemistry -
 -------------------
 Temperature   298.150 Kelvin.  Pressure   1.00000 Atm.
 Atom     1 has atomic number  8 and mass  15.99491

 Molecular mass:   154.13577 amu.
 Principal axes and moments of inertia in atomic units:
                           1         2         3
     Eigenvalues --   732.625233667.795824120.06713
           X            0.99999   0.00385   0.00038
           Y           -0.00386   0.99946   0.03258
           Z           -0.00026  -0.03258   0.99947
 This molecule is an asymmetric top.
 Rotational symmetry number  1.
 Warning -- assumption of classical behavior for rotation
           may cause significant error
 Rotational temperatures (Kelvin)      0.11822     0.02361     0.02102
 Rotational constants (GHZ):           2.46339     0.49205     0.43804
 Zero-point vibrational energy     697979.3 (Joules/Mol)
                                  166.82106 (Kcal/Mol)
 Warning -- explicit consideration of  16 degrees of freedom as
           vibrations may cause significant error
 Vibrational temperatures:     80.73    94.05    97.13   159.10   201.35
          (Kelvin)            239.86   347.26   369.53   391.48   428.81
                              439.44   610.61   636.80   648.54   733.59
                              848.62   965.74  1040.69  1075.63  1147.41
                             1213.93  1237.29  1284.33  1306.55  1343.67
                             1353.12  1389.99  1469.59  1498.82  1531.64
                             1541.84  1557.85  1567.13  1596.38  1649.30
                             1671.74  1683.41  1771.28  1814.23  1822.56
                             1855.82  1867.38  1909.53  1915.81  1942.62
                             1951.20  1972.20  1995.36  2006.07  2012.67
                             2029.68  2050.90  2073.08  2157.03  2168.36
                             2183.77  2184.90  2186.25  2199.34  2201.29
                             2206.79  2217.98  2598.75  4300.77  4334.65
                             4347.56  4351.45  4355.04  4357.42  4361.96
                             4373.30  4374.48  4392.70  4420.67  4425.83
                             4429.17  4439.32  4451.39  4469.18  4474.79
                             4487.73

 Zero-point correction=                           0.265846 (Hartree/Particle)
 Thermal correction to Energy=                    0.277791
 Thermal correction to Enthalpy=                  0.278736
 Thermal correction to Gibbs Free Energy=         0.227392
 Sum of electronic and zero-point Energies=           -466.881624
 Sum of electronic and thermal Energies=              -466.869679
 Sum of electronic and thermal Enthalpies=            -466.868735
 Sum of electronic and thermal Free Energies=         -466.920078

                     E (Thermal)             CV                S
                      KCal/Mol        Cal/Mol-Kelvin    Cal/Mol-Kelvin
 Total                  174.317             44.749            108.061
 Electronic               0.000              0.000              0.000
 Translational            0.889              2.981             41.008
 Rotational               0.889              2.981             30.783
 Vibrational            172.539             38.788             36.271
 Vibration     1          0.596              1.975              4.590
 Vibration     2          0.597              1.971              4.288
 Vibration     3          0.598              1.970              4.225
 Vibration     4          0.606              1.941              3.259
 Vibration     5          0.615              1.913              2.805
 Vibration     6          0.624              1.883              2.472
 Vibration     7          0.658              1.777              1.793
 Vibration     8          0.666              1.751              1.683
 Vibration     9          0.675              1.725              1.583
 Vibration    10          0.691              1.677              1.428
 Vibration    11          0.696              1.663              1.387
 Vibration    12          0.786              1.417              0.877
 Vibration    13          0.802              1.377              0.818
 Vibration    14          0.810              1.359              0.793
 Vibration    15          0.865              1.228              0.634
 Vibration    16          0.947              1.053              0.467

 Normal termination of Gaussian 16 at Thu Feb 22 10:37:44 2024.
