 Gaussian 16, Revision A.03,
 Gaussian 16:  EM64M-G16RevA.03 25-Dec-2016

 ---------------------
 # freq b3lyp/6-31g(d)
 ---------------------

 ---------
 good luck
 ---------
 Symbolic Z-matrix:
 Charge =  0 Multiplicity = 1

                         Standard orientation:
 ---------------------------------------------------------------------
 Center     Atomic      Atomic             Coordinates (Angstroms)
 Number     Number       Type             X           Y           Z
 ---------------------------------------------------------------------
      1          8           0        2.568121   -1.416284   -0.000000
      2          6           0        1.554565   -0.743836   -0.000000
      3          6           0        0.847807   -0.273819   -1.268165
      4          6           0       -0.598271   -0.828600   -1.254741
      5          6           0        0.804978    1.275058   -1.257799
      6          6           0        0.059471    1.764440    0.000000
      7          6           0        0.804977    1.275057    1.257800
      8          6           0        0.847807   -0.273819    1.268165
      9          6           0       -0.598271   -0.828601    1.254741
     10          6           0       -1.365264   -0.344098   -0.000001
     11          6           0       -2.795258   -0.896520   -0.000001
     12          6           0       -1.376853    1.203774    0.000000
     13          1           0        1.403516   -0.648184   -2.133971
     14          1           0       -1.121107   -0.499136   -2.163757
     15          1           0       -0.579367   -1.926797   -1.280149
     16          1           0        0.298926    1.630452   -2.165785
     17          1           0        1.824979    1.680636   -1.279847
     18          1           0        0.025112    2.861641    0.000001
     19          1           0        0.298925    1.630451    2.165786
     20          1           0        1.824979    1.680636    1.279848
     21          1           0        1.403516   -0.648186    2.133971
     22          1           0       -1.121107   -0.499137    2.163756
     23          1           0       -0.579367   -1.926798    1.280148
     24          1           0       -3.348418   -0.561149    0.886094
     25          1           0       -3.348418   -0.561149   -0.886093
     26          1           0       -2.796224   -1.993703   -0.000000
     27          1           0       -1.922519    1.568237    0.882086
     28          1           0       -1.922518    1.568237   -0.882086
 ---------------------------------------------------------------------

 SCF Done:  E(RB3LYP) =  -504.052684623     A.U. after   13 cycles

 The electronic state is 1-A.
 Alpha  occ. eigenvalues --  -19.12945 -10.26046 -10.20043 -10.19370 -10.19122
 Alpha  occ. eigenvalues --  -10.19121 -10.18959 -10.18957 -10.18849 -10.18848
 Alpha  occ. eigenvalues --  -10.18350 -10.17805  -1.02764  -0.87458  -0.79130
 Alpha  occ. eigenvalues --   -0.77782  -0.76178  -0.68408  -0.67545  -0.64356
 Alpha  occ. eigenvalues --   -0.60161  -0.57851  -0.56248  -0.50047  -0.46051
 Alpha  occ. eigenvalues --   -0.45866  -0.45068  -0.44461  -0.44170  -0.42886
 Alpha  occ. eigenvalues --   -0.42292  -0.40141  -0.40013  -0.38308  -0.37953
 Alpha  occ. eigenvalues --   -0.37322  -0.36238  -0.35699  -0.33713  -0.33066
 Alpha  occ. eigenvalues --   -0.33046  -0.29918  -0.29515  -0.29160  -0.22696
 Alpha virt. eigenvalues --   -0.00696   0.06567   0.10738   0.11311   0.11851
 Alpha virt. eigenvalues --    0.12841   0.13512   0.14257   0.14466   0.16118
 Alpha virt. eigenvalues --    0.16499   0.16788   0.17117   0.18870   0.18997

 Mulliken charges:
               1
     1  O   -0.460876
     2  C    0.453746
     3  C   -0.167553
     4  C   -0.282318
     5  C   -0.280435
     6  C   -0.095754
     7  C   -0.280436
     8  C   -0.167553
     9  C   -0.282318
    10  C    0.088032
    11  C   -0.451806
    12  C   -0.267737
    13  H    0.141366
    14  H    0.133792
    15  H    0.140863
    16  H    0.136594
    17  H    0.143585
    18  H    0.124938
    19  H    0.136594
    20  H    0.143585
    21  H    0.141366
    22  H    0.133792
    23  H    0.140864
    24  H    0.140753
    25  H    0.140753
    26  H    0.141820
    27  H    0.127172
    28  H    0.127172
 Sum of Mulliken charges =  -0.00000

 Dipole moment (field-independent basis, Debye):
    X=             -2.6522    Y=              1.7953    Z=             -0.0000  Tot=              3.2027
 Quadrupole moment (field-independent basis, Debye-Ang):
   XX=            -81.7255   YY=            -74.5959   ZZ=            -70.8862
   XY=              5.9505   XZ=              0.0000   YZ=             -0.0000

  Exact polarizability: 113.508  -1.744 102.932  -0.000   0.000 101.931
 Approx polarizability: 162.574 -11.042 153.322  -0.000   0.000 151.215

                      1                      2                      3
                      A                      A                      A
 Frequencies --     97.1424               240.0328               243.9647
 Red. masses --      7.1943                 2.2116                 1.0391
 Frc consts  --      0.0400                 0.0751                 0.0364
 IR Inten    --      3.1839                 0.0066                 0.0476

                      4                      5                      6
                      A                      A                      A
 Frequencies --    277.3105               280.3321               336.8959
 Red. masses --      2.2228                 2.3736                 2.4956
 Frc consts  --      0.1007                 0.1099                 0.1669
 IR Inten    --      0.7200                 0.0543                 0.3784

                      7                      8                      9
                      A                      A                      A
 Frequencies --    369.9134               390.3687               396.5906
 Red. masses --      5.8314                 2.0419                 4.7191
 Frc consts  --      0.4701                 0.1833                 0.4373
 IR Inten    --      1.0725                 0.0687                 0.0147

                     10                     11                     12
                      A                      A                      A
 Frequencies --    434.2505               442.4148               472.3955
 Red. masses --      1.8939                 1.7906                 3.8992
 Frc consts  --      0.2104                 0.2065                 0.5127
 IR Inten    --      0.2514                 1.5219                10.1017

                     13                     14                     15
                      A                      A                      A
 Frequencies --    513.4570               617.9081               637.5212
 Red. masses --      3.5485                 5.5037                 3.5449
 Frc consts  --      0.5512                 1.2381                 0.8489
 IR Inten    --      0.1741                 0.1295                 1.5165

                     16                     17                     18
                      A                      A                      A
 Frequencies --    709.1884               716.9633               788.9556
 Red. masses --      3.5458                 4.0520                 3.7250
 Frc consts  --      1.0507                 1.2272                 1.3661
 IR Inten    --      0.1860                 1.6676                 0.1900

                     19                     20                     21
                      A                      A                      A
 Frequencies --    800.6299               849.9990               889.3064
 Red. masses --      2.8357                 2.6230                 2.1780
 Frc consts  --      1.0709                 1.1166                 1.0149
 IR Inten    --      0.2207                 0.8506                 3.8723

                     22                     23                     24
                      A                      A                      A
 Frequencies --    893.5939               901.8746               918.8617
 Red. masses --      1.7072                 1.6101                 1.8011
 Frc consts  --      0.8032                 0.7716                 0.8960
 IR Inten    --      1.7037                 0.8967                 0.2714

                     25                     26                     27
                      A                      A                      A
 Frequencies --    931.6085               951.7314               991.9014
 Red. masses --      3.0697                 2.0190                 2.5898
 Frc consts  --      1.5697                 1.0775                 1.5013
 IR Inten    --      0.9730                 3.5911                 1.1239

                     28                     29                     30
                      A                      A                      A
 Frequencies --    998.2339              1028.8621              1043.4904
 Red. masses --      1.8046                 1.7291                 1.8494
 Frc consts  --      1.0595                 1.0784                 1.1865
 IR Inten    --      2.3391                 0.2718                 1.9192

                     31                     32                     33
                      A                      A                      A
 Frequencies --   1062.2571              1076.1477              1089.3830
 Red. masses --      2.0275                 1.8683                 1.5376
 Frc consts  --      1.3479                 1.2748                 1.0751
 IR Inten    --      0.1616                26.0989                 6.2881

                     34                     35                     36
                      A                      A                      A
 Frequencies --   1100.1310              1133.7815              1141.2258
 Red. masses --      1.6188                 1.2443                 1.1034
 Frc consts  --      1.1544                 0.9424                 0.8467
 IR Inten    --      1.1088                 0.4880                 0.2277

                     37                     38                     39
                      A                      A                      A
 Frequencies --   1165.1544              1166.8497              1217.6833
 Red. masses --      4.0730                 1.1855                 1.1142
 Frc consts  --      3.2579                 0.9510                 0.9734
 IR Inten    --      0.6920                 0.3390                 0.1251

                     40                     41                     42
                      A                      A                      A
 Frequencies --   1248.6150              1271.0663              1290.1237
 Red. masses --      1.8386                 1.4791                 1.8261
 Frc consts  --      1.6888                 1.4080                 1.7908
 IR Inten    --      9.2617                 4.4767                 0.3656

                     43                     44                     45
                      A                      A                      A
 Frequencies --   1310.3117              1313.6237              1328.4582
 Red. masses --      1.7661                 1.6068                 1.6245
 Frc consts  --      1.7866                 1.6336                 1.6892
 IR Inten    --      0.2542                 0.0223                 5.4201

                     46                     47                     48
                      A                      A                      A
 Frequencies --   1339.3157              1353.1930              1359.6356
 Red. masses --      1.6761                 1.5343                 1.4826
 Frc consts  --      1.7714                 1.6553                 1.6148
 IR Inten    --      0.4839                 0.4695                 0.6466

                     49                     50                     51
                      A                      A                      A
 Frequencies --   1381.1224              1390.7191              1395.3818
 Red. masses --      1.6404                 1.4787                 1.5263
 Frc consts  --      1.8436                 1.6850                 1.7510
 IR Inten    --      3.4231                 0.9312                 1.3109

                     52                     53                     54
                      A                      A                      A
 Frequencies --   1399.0875              1410.2989              1440.8811
 Red. masses --      1.5727                 1.5217                 1.2333
 Frc consts  --      1.8138                 1.7832                 1.5086
 IR Inten    --      1.4025                 0.4945                 3.1956

                     55                     56                     57
                      A                      A                      A
 Frequencies --   1507.4160              1511.4074              1520.6241
 Red. masses --      1.0854                 1.0879                 1.0865
 Frc consts  --      1.4531                 1.4642                 1.4802
 IR Inten    --      0.0080                 2.0308                 4.1370

                     58                     59                     60
                      A                      A                      A
 Frequencies --   1523.7520              1527.4402              1527.9417
 Red. masses --      1.0908                 1.0584                 1.0592
 Frc consts  --      1.4923                 1.4549                 1.4569
 IR Inten    --      4.6914                11.1849                 8.0684

                     61                     62                     63
                      A                      A                      A
 Frequencies --   1541.6385              1820.5511              3019.5228
 Red. masses --      1.0919                11.2362                 1.0596
 Frc consts  --      1.5290                21.9420                 5.6920
 IR Inten    --      0.4077               221.8374                21.1049

                     64                     65                     66
                      A                      A                      A
 Frequencies --   3024.2003              3027.7169              3031.9504
 Red. masses --      1.0592                 1.0541                 1.0647
 Frc consts  --      5.7076                 5.6932                 5.7667
 IR Inten    --     28.2329                12.4755                 7.4195

                     67                     68                     69
                      A                      A                      A
 Frequencies --   3032.6944              3037.5510              3053.1357
 Red. masses --      1.0600                 1.0426                 1.0801
 Frc consts  --      5.7438                 5.6678                 5.9321
 IR Inten    --     42.6443                72.0272                78.7513

                     70                     71                     72
                      A                      A                      A
 Frequencies --   3056.7955              3063.1693              3066.3755
 Red. masses --      1.1045                 1.1048                 1.1039
 Frc consts  --      6.0805                 6.1076                 6.1157
 IR Inten    --     17.8094                19.0079                43.7425

                     73                     74                     75
                      A                      A                      A
 Frequencies --   3071.1480              3074.6181              3087.8904
 Red. masses --      1.1053                 1.1041                 1.0862
 Frc consts  --      6.1421                 6.1493                 6.1021
 IR Inten    --     25.1613                52.8197                42.6248

                     76                     77                     78
                      A                      A                      A
 Frequencies --   3089.7498              3102.1860              3102.4382
 Red. masses --      1.0868                 1.1020                 1.1021
 Frc consts  --      6.1128                 6.2487                 6.2499
 IR Inten    --     21.4716                35.9816                35.7274

 - Thermochemistry -
 -------------------
 Temperature   298.150 Kelvin.  Pressure   1.00000 Atm.
 Atom     1 has atomic number  8 and mass  15.99491

 Molecular mass:   164.12012 amu.
 Principal axes and moments of inertia in atomic units:
                           1         2         3
     Eigenvalues --  1252.945371854.260732020.32681
           X            0.99757   0.06971  -0.00000
           Y           -0.06971   0.99757  -0.00000
           Z            0.00000   0.00000   1.00000
 This molecule is an asymmetric top.
 Rotational symmetry number  1.
 Warning -- assumption of classical behavior for rotation
           may cause significant error
 Rotational temperatures (Kelvin)      0.06913     0.04671     0.04287
 Rotational constants (GHZ):           1.44040     0.97329     0.89329
 Zero-point vibrational energy     663760.3 (Joules/Mol)
                                  158.64252 (Kcal/Mol)
 Warning -- explicit consideration of  14 degrees of freedom as
           vibrations may cause significant error
 Vibrational temperatures:    139.77   345.35   351.01   398.99   403.34
          (Kelvin)            484.72   532.22   561.65   570.61   624.79
                              636.54   679.67   738.75   889.03   917.25
                             1020.36  1031.55  1135.13  1151.93  1222.96
                             1279.51  1285.68  1297.60  1322.04  1340.38
                             1369.33  1427.12  1436.24  1480.30  1501.35
                             1528.35  1548.34  1567.38  1582.84  1631.26
                             1641.97  1676.40  1678.84  1751.97  1796.48
                             1828.78  1856.20  1885.25  1890.01  1911.36
                             1926.98  1946.94  1956.21  1987.13  2000.93
                             2007.64  2012.97  2029.11  2073.11  2168.84
                             2174.58  2187.84  2192.34  2197.65  2198.37
                             2218.07  2619.37  4344.42  4351.15  4356.21
                             4362.30  4363.37  4370.36  4392.78  4398.05
                             4407.22  4411.83  4418.70  4423.69  4442.79
                             4445.46  4463.35  4463.72

 Zero-point correction=                           0.252813 (Hartree/Particle)
 Thermal correction to Energy=                    0.262186
 Thermal correction to Enthalpy=                  0.263130
 Thermal correction to Gibbs Free Energy=         0.219107
 Sum of electronic and zero-point Energies=           -503.799872
 Sum of electronic and thermal Energies=              -503.790498
 Sum of electronic and thermal Enthalpies=            -503.789554
 Sum of electronic and thermal Free Energies=         -503.833578

                     E (Thermal)             CV                S
                      KCal/Mol        Cal/Mol-Kelvin    Cal/Mol-Kelvin
 Total                  164.524             40.835             92.656
 Electronic               0.000              0.000              0.000
 Translational            0.889              2.981             41.195
 Rotational               0.889              2.981             29.930
 Vibrational            162.747             34.874             21.531
 Vibration     1          0.603              1.951              3.511
 Vibration     2          0.657              1.779              1.803
 Vibration     3          0.659              1.773              1.774
 Vibration     4          0.678              1.715              1.550
 Vibration     5          0.680              1.710              1.532
 Vibration     6          0.718              1.602              1.227
 Vibration     7          0.742              1.534              1.080
 Vibration     8          0.758              1.491              0.999
 Vibration     9          0.763              1.477              0.975
 Vibration    10          0.795              1.396              0.845
 Vibration    11          0.802              1.378              0.819
 Vibration    12          0.829              1.311              0.731
 Vibration    13          0.869              1.220              0.625
 Vibration    14          0.978              0.994              0.420

 Normal termination of Gaussian 16 at Thu Feb 22 11:06:00 2024.
