 Gaussian 16, Revision A.03,
 Gaussian 16:  EM64M-G16RevA.03 25-Dec-2016

 ---------------------
 # freq b3lyp/6-31g(d)
 ---------------------

 ---------
 good luck
 ---------
 Symbolic Z-matrix:
 Charge =  0 Multiplicity = 1

                         Standard orientation:
 ---------------------------------------------------------------------
 Center     Atomic      Atomic             Coordinates (Angstroms)
 Number     Number       Type             X           Y           Z
 ---------------------------------------------------------------------
      1          8           0        2.554692    1.043854   -0.380013
      2          6           0        1.459055    0.718854    0.039500
      3          6           0        1.093333   -0.732591    0.355127
      4          6           0        2.220878   -1.702096   -0.002133
      5          6           0       -0.241724   -1.098876   -0.339602
      6          6           0       -1.416134   -0.129574   -0.057937
      7          6           0       -1.868590   -0.219839    1.413958
      8          6           0       -2.606956   -0.515961   -0.954966
      9          6           0       -0.965549    1.308587   -0.411514
     10          6           0        0.347890    1.733035    0.276447
     11          1           0        0.925816   -0.770096    1.443657
     12          1           0        2.422209   -1.686478   -1.078704
     13          1           0        3.149805   -1.429061    0.506083
     14          1           0        1.953418   -2.725762    0.283033
     15          1           0       -0.525772   -2.119047   -0.047574
     16          1           0       -0.063967   -1.129155   -1.424863
     17          1           0       -1.077482    0.049354    2.121783
     18          1           0       -2.192746   -1.239062    1.656999
     19          1           0       -2.716212    0.451230    1.598896
     20          1           0       -2.336537   -0.469223   -2.016839
     21          1           0       -3.456081    0.159865   -0.795234
     22          1           0       -2.948209   -1.536113   -0.740583
     23          1           0       -1.760368    2.023109   -0.160259
     24          1           0       -0.824278    1.373483   -1.499497
     25          1           0        0.189856    1.818184    1.361290
     26          1           0        0.689794    2.708704   -0.081364
 ---------------------------------------------------------------------

 SCF Done:  E(RB3LYP) =  -427.833155680     A.U. after   13 cycles

 The electronic state is 1-A.
 Alpha  occ. eigenvalues --  -19.13239 -10.26539 -10.20391 -10.19525 -10.19083
 Alpha  occ. eigenvalues --  -10.18888 -10.18881 -10.18033 -10.17835 -10.17186
 Alpha  occ. eigenvalues --   -1.03088  -0.84599  -0.78046  -0.75966  -0.69071
 Alpha  occ. eigenvalues --   -0.68136  -0.65770  -0.60992  -0.54996  -0.51592
 Alpha  occ. eigenvalues --   -0.47052  -0.46361  -0.45634  -0.44544  -0.43853
 Alpha  occ. eigenvalues --   -0.41872  -0.39822  -0.39544  -0.38279  -0.37560
 Alpha  occ. eigenvalues --   -0.37205  -0.36649  -0.36058  -0.34777  -0.34132
 Alpha  occ. eigenvalues --   -0.32039  -0.31194  -0.30868  -0.23374
 Alpha virt. eigenvalues --   -0.01152   0.07748   0.09549   0.11238   0.12260
 Alpha virt. eigenvalues --    0.12666   0.13367   0.15184   0.15648   0.16120
 Alpha virt. eigenvalues --    0.16748   0.17591   0.18107   0.18918   0.19793

 Mulliken charges:
               1
     1  O   -0.451241
     2  C    0.452798
     3  C   -0.176400
     4  C   -0.437977
     5  C   -0.266299
     6  C    0.092365
     7  C   -0.455415
     8  C   -0.447315
     9  C   -0.270759
    10  C   -0.350857
    11  H    0.145524
    12  H    0.152997
    13  H    0.160121
    14  H    0.135172
    15  H    0.134675
    16  H    0.135107
    17  H    0.142823
    18  H    0.143373
    19  H    0.143000
    20  H    0.141515
    21  H    0.141047
    22  H    0.141313
    23  H    0.136887
    24  H    0.140215
    25  H    0.155059
    26  H    0.162271
 Sum of Mulliken charges =  -0.00000

 Dipole moment (field-independent basis, Debye):
    X=             -2.7286    Y=             -0.7984    Z=              0.8787  Tot=              2.9757
 Quadrupole moment (field-independent basis, Debye-Ang):
   XX=            -71.5538   YY=            -62.7647   ZZ=            -62.0476
   XY=             -3.9428   XZ=              2.1687   YZ=              0.7960

  Exact polarizability: 105.582   0.046  92.330  -1.969  -0.681  80.902
 Approx polarizability: 141.575   4.587 127.738  -7.530  -2.594 123.729

                      1                      2                      3
                      A                      A                      A
 Frequencies --     70.3940               129.7822               190.7485
 Red. masses --      5.1617                 2.3858                 1.4313
 Frc consts  --      0.0151                 0.0237                 0.0307
 IR Inten    --      2.5935                 0.3619                 0.1229

                      4                      5                      6
                      A                      A                      A
 Frequencies --    208.4170               227.4582               247.1354
 Red. masses --      1.3141                 1.2787                 1.5843
 Frc consts  --      0.0336                 0.0390                 0.0570
 IR Inten    --      0.2682                 0.1312                 0.1081

                      7                      8                      9
                      A                      A                      A
 Frequencies --    274.7143               291.4417               302.5245
 Red. masses --      1.5760                 2.0369                 2.4318
 Frc consts  --      0.0701                 0.1019                 0.1311
 IR Inten    --      1.6009                 2.4499                 0.1613

                     10                     11                     12
                      A                      A                      A
 Frequencies --    337.9644               381.1805               415.1762
 Red. masses --      2.4316                 2.6929                 2.2312
 Frc consts  --      0.1636                 0.2305                 0.2266
 IR Inten    --      1.0206                 3.4738                 0.4430

                     13                     14                     15
                      A                      A                      A
 Frequencies --    445.3671               454.0469               513.1468
 Red. masses --      2.7032                 2.5965                 2.6013
 Frc consts  --      0.3159                 0.3154                 0.4036
 IR Inten    --      0.9190                 0.6497                 1.5984

                     16                     17                     18
                      A                      A                      A
 Frequencies --    570.4054               701.9481               717.0001
 Red. masses --      3.7143                 3.1739                 2.8839
 Frc consts  --      0.7120                 0.9214                 0.8735
 IR Inten    --      3.6551                 1.3237                 1.2564

                     19                     20                     21
                      A                      A                      A
 Frequencies --    752.3486               845.2842               885.5519
 Red. masses --      2.4766                 1.7762                 2.0392
 Frc consts  --      0.8259                 0.7477                 0.9422
 IR Inten    --      5.0075                 4.0539                 3.2423

                     22                     23                     24
                      A                      A                      A
 Frequencies --    916.5962               932.4057               956.2497
 Red. masses --      2.1922                 1.6001                 1.5661
 Frc consts  --      1.0851                 0.8196                 0.8437
 IR Inten    --      0.4252                 1.8539                 0.4970

                     25                     26                     27
                      A                      A                      A
 Frequencies --    965.7189              1002.0361              1017.7362
 Red. masses --      1.6245                 1.5015                 1.8973
 Frc consts  --      0.8927                 0.8882                 1.1579
 IR Inten    --      1.8873                 0.3070                 6.0303

                     28                     29                     30
                      A                      A                      A
 Frequencies --   1035.5936              1061.4390              1082.9891
 Red. masses --      1.2866                 1.7409                 2.4195
 Frc consts  --      0.8130                 1.1556                 1.6720
 IR Inten    --      1.6427                 2.7633                 7.9773

                     31                     32                     33
                      A                      A                      A
 Frequencies --   1139.8029              1157.9242              1168.0489
 Red. masses --      1.3639                 1.6445                 2.3749
 Frc consts  --      1.0439                 1.2991                 1.9090
 IR Inten    --      0.4617                 2.7328                38.3799

                     34                     35                     36
                      A                      A                      A
 Frequencies --   1195.8878              1209.5236              1261.5721
 Red. masses --      1.9951                 2.0543                 1.6708
 Frc consts  --      1.6811                 1.7707                 1.5667
 IR Inten    --      5.4834                 4.9143                 4.1387

                     37                     38                     39
                      A                      A                      A
 Frequencies --   1297.0277              1311.7132              1329.7216
 Red. masses --      1.9749                 1.6738                 1.4232
 Frc consts  --      1.9575                 1.6968                 1.4827
 IR Inten    --      1.9743                 0.7429                 0.4788

                     40                     41                     42
                      A                      A                      A
 Frequencies --   1353.8837              1373.3831              1390.7754
 Red. masses --      1.3597                 1.3681                 1.6322
 Frc consts  --      1.4685                 1.5204                 1.8601
 IR Inten    --      4.6100                 1.8932                 5.5384

                     43                     44                     45
                      A                      A                      A
 Frequencies --   1404.2964              1429.6794              1440.3567
 Red. masses --      1.6839                 1.2392                 1.2380
 Frc consts  --      1.9565                 1.4924                 1.5133
 IR Inten    --      3.1875                 5.2368                 3.7509

                     46                     47                     48
                      A                      A                      A
 Frequencies --   1451.5311              1499.1557              1511.3319
 Red. masses --      1.2295                 1.0829                 1.0807
 Frc consts  --      1.5263                 1.4339                 1.4544
 IR Inten    --      7.3343                 7.1781                 1.5853

                     49                     50                     51
                      A                      A                      A
 Frequencies --   1515.6901              1519.7995              1521.7271
 Red. masses --      1.0612                 1.0516                 1.0455
 Frc consts  --      1.4363                 1.4312                 1.4265
 IR Inten    --      2.0704                 1.8958                 4.2730

                     52                     53                     54
                      A                      A                      A
 Frequencies --   1525.2135              1533.0374              1536.8371
 Red. masses --      1.0533                 1.0696                 1.0658
 Frc consts  --      1.4437                 1.4810                 1.4831
 IR Inten    --      8.3467                 3.9255                 4.4254

                     55                     56                     57
                      A                      A                      A
 Frequencies --   1542.4615              1809.5954              3003.1323
 Red. masses --      1.0562                11.3453                 1.0797
 Frc consts  --      1.4806                21.8891                 5.7374
 IR Inten    --      7.2100               175.5104                 4.4473

                     58                     59                     60
                      A                      A                      A
 Frequencies --   3020.6225              3029.5885              3035.7336
 Red. masses --      1.0614                 1.0604                 1.0538
 Frc consts  --      5.7061                 5.7341                 5.7219
 IR Inten    --     30.3070                15.7814                 0.4673

                     61                     62                     63
                      A                      A                      A
 Frequencies --   3038.6060              3046.3865              3057.4330
 Red. masses --      1.0481                 1.0394                 1.0394
 Frc consts  --      5.7017                 5.6833                 5.7246
 IR Inten    --     61.0335                17.7019                22.7658

                     64                     65                     66
                      A                      A                      A
 Frequencies --   3061.6840              3071.1258              3102.0497
 Red. masses --      1.0990                 1.1013                 1.1026
 Frc consts  --      6.0695                 6.1200                 6.2513
 IR Inten    --     29.9827                33.3902                 0.6106

                     67                     68                     69
                      A                      A                      A
 Frequencies --   3106.2498              3108.2075              3114.5053
 Red. masses --      1.1022                 1.1017                 1.0976
 Frc consts  --      6.2657                 6.2709                 6.2727
 IR Inten    --     37.1729                61.0129                43.8384

                     70                     71                     72
                      A                      A                      A
 Frequencies --   3117.2288              3122.3209              3139.6672
 Red. masses --      1.0983                 1.1025                 1.1014
 Frc consts  --      6.2878                 6.3326                 6.3968
 IR Inten    --     17.3283                31.0607                20.7270

 - Thermochemistry -
 -------------------
 Temperature   298.150 Kelvin.  Pressure   1.00000 Atm.
 Atom     1 has atomic number  8 and mass  15.99491

 Molecular mass:   140.12012 amu.
 Principal axes and moments of inertia in atomic units:
                           1         2         3
     Eigenvalues --   883.840781775.684912173.08146
           X            0.99933  -0.03635   0.00522
           Y            0.03628   0.99926   0.01278
           Z           -0.00568  -0.01258   0.99990
 This molecule is an asymmetric top.
 Rotational symmetry number  1.
 Warning -- assumption of classical behavior for rotation
           may cause significant error
 Rotational temperatures (Kelvin)      0.09800     0.04878     0.03986
 Rotational constants (GHZ):           2.04193     1.01636     0.83050
 Zero-point vibrational energy     619290.7 (Joules/Mol)
                                  148.01403 (Kcal/Mol)
 Warning -- explicit consideration of  16 degrees of freedom as
           vibrations may cause significant error
 Vibrational temperatures:    101.28   186.73   274.44   299.87   327.26
          (Kelvin)            355.57   395.25   419.32   435.27   486.26
                              548.43   597.35   640.78   653.27   738.30
                              820.69  1009.95  1031.60  1082.46  1216.18
                             1274.11  1318.78  1341.52  1375.83  1389.45
                             1441.71  1464.30  1489.99  1527.17  1558.18
                             1639.92  1665.99  1680.56  1720.62  1740.23
                             1815.12  1866.13  1887.26  1913.17  1947.94
                             1975.99  2001.02  2020.47  2056.99  2072.35
                             2088.43  2156.95  2174.47  2180.74  2186.65
                             2189.43  2194.44  2205.70  2211.17  2219.26
                             2603.60  4320.84  4346.00  4358.90  4367.74
                             4371.88  4383.07  4398.96  4405.08  4418.67
                             4463.16  4469.20  4472.02  4481.08  4485.00
                             4492.32  4517.28

 Zero-point correction=                           0.235875 (Hartree/Particle)
 Thermal correction to Energy=                    0.246539
 Thermal correction to Enthalpy=                  0.247483
 Thermal correction to Gibbs Free Energy=         0.200789
 Sum of electronic and zero-point Energies=           -427.597280
 Sum of electronic and thermal Energies=              -427.586616
 Sum of electronic and thermal Enthalpies=            -427.585672
 Sum of electronic and thermal Free Energies=         -427.632367

                     E (Thermal)             CV                S
                      KCal/Mol        Cal/Mol-Kelvin    Cal/Mol-Kelvin
 Total                  154.706             41.769             98.277
 Electronic               0.000              0.000              0.000
 Translational            0.889              2.981             40.724
 Rotational               0.889              2.981             29.613
 Vibrational            152.928             35.807             27.941
 Vibration     1          0.598              1.968              4.142
 Vibration     2          0.612              1.924              2.949
 Vibration     3          0.634              1.853              2.221
 Vibration     4          0.642              1.828              2.057
 Vibration     5          0.651              1.799              1.899
 Vibration     6          0.661              1.768              1.751
 Vibration     7          0.677              1.720              1.566
 Vibration     8          0.687              1.690              1.466
 Vibration     9          0.694              1.669              1.403
 Vibration    10          0.718              1.600              1.222
 Vibration    11          0.751              1.510              1.034
 Vibration    12          0.779              1.437              0.909
 Vibration    13          0.805              1.371              0.810
 Vibration    14          0.812              1.352              0.784
 Vibration    15          0.868              1.221              0.626
 Vibration    16          0.927              1.095              0.503

 Normal termination of Gaussian 16 at Wed Feb 21 22:56:30 2024.
