 Gaussian 16, Revision A.03,
 Gaussian 16:  EM64M-G16RevA.03 25-Dec-2016

 ---------------------
 # freq b3lyp/6-31g(d)
 ---------------------

 ---------
 good luck
 ---------
 Symbolic Z-matrix:
 Charge =  0 Multiplicity = 1

                         Standard orientation:
 ---------------------------------------------------------------------
 Center     Atomic      Atomic             Coordinates (Angstroms)
 Number     Number       Type             X           Y           Z
 ---------------------------------------------------------------------
      1          8           0       -3.333594   -0.892496    0.037388
      2          6           0       -2.268075   -0.318592   -0.014987
      3          6           0       -0.889380   -0.985544    0.008616
      4          6           0        0.106074    0.122857   -0.396902
      5          6           0        1.598478   -0.098334   -0.011262
      6          6           0        1.810518   -0.202195    1.512604
      7          6           0        2.098984   -1.399751   -0.672440
      8          6           0        2.439179    1.077998   -0.550164
      9          6           0       -0.570163    1.415553    0.137216
     10          6           0       -2.069805    1.197008   -0.117820
     11          1           0       -0.714293   -1.328624    1.038542
     12          1           0       -0.881871   -1.874960   -0.627955
     13          1           0        0.081974    0.186783   -1.496633
     14          1           0        2.871985   -0.367221    1.732450
     15          1           0        1.256268   -1.039712    1.951368
     16          1           0        1.509088    0.712832    2.034403
     17          1           0        1.570790   -2.279675   -0.288151
     18          1           0        3.168493   -1.545811   -0.478827
     19          1           0        1.958534   -1.372014   -1.760371
     20          1           0        2.167571    2.025998   -0.072544
     21          1           0        2.307902    1.196737   -1.633124
     22          1           0        3.505948    0.908152   -0.361475
     23          1           0       -0.186696    2.319544   -0.344452
     24          1           0       -0.391518    1.519949    1.214637
     25          1           0       -2.742339    1.728149    0.562802
     26          1           0       -2.347945    1.495840   -1.138934
 ---------------------------------------------------------------------

 SCF Done:  E(RB3LYP) =  -427.825135944     A.U. after   13 cycles

 The electronic state is 1-A.
 Alpha  occ. eigenvalues --  -19.13260 -10.26947 -10.20302 -10.19582 -10.19023
 Alpha  occ. eigenvalues --  -10.18976 -10.18770 -10.17719 -10.17637 -10.17593
 Alpha  occ. eigenvalues --   -1.03254  -0.84966  -0.80080  -0.72355  -0.68930
 Alpha  occ. eigenvalues --   -0.68739  -0.67569  -0.59950  -0.53600  -0.52685
 Alpha  occ. eigenvalues --   -0.48676  -0.46955  -0.44543  -0.43726  -0.43129
 Alpha  occ. eigenvalues --   -0.42143  -0.41218  -0.40004  -0.39050  -0.37579
 Alpha  occ. eigenvalues --   -0.37060  -0.36631  -0.35610  -0.34437  -0.33415
 Alpha  occ. eigenvalues --   -0.31910  -0.31645  -0.31241  -0.23420
 Alpha virt. eigenvalues --   -0.01322   0.06729   0.10474   0.10826   0.11719
 Alpha virt. eigenvalues --    0.12674   0.13313   0.13946   0.15020   0.16185
 Alpha virt. eigenvalues --    0.16837   0.17789   0.18596   0.19308   0.20223

 Mulliken charges:
               1
     1  O   -0.450275
     2  C    0.443217
     3  C   -0.367631
     4  C   -0.085626
     5  C    0.098823
     6  C   -0.457360
     7  C   -0.449104
     8  C   -0.449585
     9  C   -0.297894
    10  C   -0.355142
    11  H    0.169903
    12  H    0.171589
    13  H    0.122409
    14  H    0.143275
    15  H    0.141996
    16  H    0.143277
    17  H    0.145535
    18  H    0.140322
    19  H    0.138501
    20  H    0.144064
    21  H    0.137966
    22  H    0.140852
    23  H    0.145524
    24  H    0.144607
    25  H    0.169904
    26  H    0.170854
 Sum of Mulliken charges =   0.00000

 Dipole moment (field-independent basis, Debye):
    X=              2.7279    Y=              1.3479    Z=             -0.1306  Tot=              3.0456
 Quadrupole moment (field-independent basis, Debye-Ang):
   XX=            -75.5911   YY=            -63.1464   ZZ=            -61.5601
   XY=             -5.6321   XZ=              0.5485   YZ=             -0.0746

  Exact polarizability: 107.871  -0.003  90.361  -0.111  -0.432  80.131
 Approx polarizability: 140.321   5.038 129.012   0.176  -1.352 121.128

                      1                      2                      3
                      A                      A                      A
 Frequencies --     54.7376                78.8008               141.8480
 Red. masses --      3.3492                 2.6269                 2.0181
 Frc consts  --      0.0059                 0.0096                 0.0239
 IR Inten    --      2.4897                 2.5029                 1.0544

                      4                      5                      6
                      A                      A                      A
 Frequencies --    184.5589               226.8725               264.8063
 Red. masses --      3.3890                 1.0765                 1.2507
 Frc consts  --      0.0680                 0.0326                 0.0517
 IR Inten    --      0.8094                 0.0271                 0.0872

                      7                      8                      9
                      A                      A                      A
 Frequencies --    265.7992               294.8119               316.6005
 Red. masses --      1.0513                 2.3170                 2.1397
 Frc consts  --      0.0438                 0.1186                 0.1264
 IR Inten    --      0.0135                 0.1480                 0.1400

                     10                     11                     12
                      A                      A                      A
 Frequencies --    336.8608               377.1780               425.1593
 Red. masses --      2.4445                 2.0713                 2.8728
 Frc consts  --      0.1634                 0.1736                 0.3060
 IR Inten    --      0.6368                 0.1906                 1.9770

                     13                     14                     15
                      A                      A                      A
 Frequencies --    457.3961               498.2800               521.1879
 Red. masses --      1.9732                 2.9921                 2.7646
 Frc consts  --      0.2432                 0.4377                 0.4425
 IR Inten    --      0.1004                 3.7325                 3.4376

                     16                     17                     18
                      A                      A                      A
 Frequencies --    546.1102               580.7295               732.1519
 Red. masses --      2.6160                 2.9407                 2.0491
 Frc consts  --      0.4597                 0.5843                 0.6472
 IR Inten    --      4.5173                 3.9288                 0.9951

                     19                     20                     21
                      A                      A                      A
 Frequencies --    777.9629               822.4272               860.9881
 Red. masses --      3.3594                 2.7417                 2.5391
 Frc consts  --      1.1979                 1.0926                 1.1090
 IR Inten    --      1.9239                 1.8849                 1.1548

                     22                     23                     24
                      A                      A                      A
 Frequencies --    923.5102               940.6332               943.0845
 Red. masses --      1.6630                 1.7105                 1.6955
 Frc consts  --      0.8356                 0.8917                 0.8885
 IR Inten    --      2.1752                 1.0128                 0.8165

                     25                     26                     27
                      A                      A                      A
 Frequencies --    961.5574               971.6173               984.2570
 Red. masses --      1.3368                 1.2317                 2.2239
 Frc consts  --      0.7282                 0.6851                 1.2694
 IR Inten    --      0.5511                 0.1451                 1.9427

                     28                     29                     30
                      A                      A                      A
 Frequencies --   1007.5053              1038.7547              1048.8415
 Red. masses --      1.8086                 1.6822                 1.3503
 Frc consts  --      1.0817                 1.0694                 0.8752
 IR Inten    --      5.1487                 0.1372                 0.5379

                     31                     32                     33
                      A                      A                      A
 Frequencies --   1104.3669              1151.0112              1183.9588
 Red. masses --      2.4241                 2.1674                 1.8859
 Frc consts  --      1.7419                 1.6918                 1.5576
 IR Inten    --      0.1699                55.9189                30.5418

                     34                     35                     36
                      A                      A                      A
 Frequencies --   1189.2457              1237.9755              1250.0446
 Red. masses --      1.6058                 1.8729                 2.0500
 Frc consts  --      1.3381                 1.6911                 1.8873
 IR Inten    --      8.5397                 3.6132                 5.7086

                     37                     38                     39
                      A                      A                      A
 Frequencies --   1266.3537              1275.7956              1292.5359
 Red. masses --      1.6494                 1.9047                 2.2828
 Frc consts  --      1.5585                 1.8266                 2.2470
 IR Inten    --      1.2670                13.5565                 1.0218

                     40                     41                     42
                      A                      A                      A
 Frequencies --   1319.6926              1337.0499              1365.9310
 Red. masses --      1.3430                 1.4680                 1.2729
 Frc consts  --      1.3781                 1.5462                 1.3993
 IR Inten    --      2.2253                 2.4070                 1.4020

                     43                     44                     45
                      A                      A                      A
 Frequencies --   1398.9420              1428.5131              1430.6278
 Red. masses --      1.4612                 1.2314                 1.2375
 Frc consts  --      1.6849                 1.4805                 1.4922
 IR Inten    --      1.6538                 4.9521                 7.7289

                     46                     47                     48
                      A                      A                      A
 Frequencies --   1460.6434              1479.3170              1481.6034
 Red. masses --      1.2256                 1.0887                 1.0883
 Frc consts  --      1.5406                 1.4037                 1.4076
 IR Inten    --      6.8952                10.5413                 1.8935

                     49                     50                     51
                      A                      A                      A
 Frequencies --   1514.3067              1517.4485              1519.0271
 Red. masses --      1.0500                 1.0458                 1.0464
 Frc consts  --      1.4186                 1.4189                 1.4225
 IR Inten    --      0.1719                 0.5083                 0.0147

                     52                     53                     54
                      A                      A                      A
 Frequencies --   1530.5267              1539.1040              1539.4452
 Red. masses --      1.0933                 1.0569                 1.0533
 Frc consts  --      1.5090                 1.4751                 1.4708
 IR Inten    --      2.1043                 4.0708                 4.3932

                     55                     56                     57
                      A                      A                      A
 Frequencies --   1548.9411              1844.5895              2995.8682
 Red. masses --      1.0587                12.5600                 1.0830
 Frc consts  --      1.4965                25.1790                 5.7269
 IR Inten    --     11.9679               244.4833                20.6352

                     58                     59                     60
                      A                      A                      A
 Frequencies --   3037.3577              3040.2081              3040.4466
 Red. masses --      1.0355                 1.0445                 1.0694
 Frc consts  --      5.6285                 5.6882                 5.8246
 IR Inten    --     22.6451                13.4183                10.7214

                     61                     62                     63
                      A                      A                      A
 Frequencies --   3042.5745              3049.7870              3060.7158
 Red. masses --      1.0569                 1.0408                 1.0622
 Frc consts  --      5.7647                 5.7035                 5.8626
 IR Inten    --     27.0639                 4.2816                32.2638

                     64                     65                     66
                      A                      A                      A
 Frequencies --   3100.4553              3104.4473              3107.5807
 Red. masses --      1.1023                 1.1016                 1.1005
 Frc consts  --      6.2430                 6.2553                 6.2616
 IR Inten    --      0.4162                13.7576                48.2618

                     67                     68                     69
                      A                      A                      A
 Frequencies --   3108.2241              3113.1928              3114.7090
 Red. masses --      1.1010                 1.0971                 1.0989
 Frc consts  --      6.2673                 6.2650                 6.2811
 IR Inten    --     13.7224                30.4484                69.0845

                     70                     71                     72
                      A                      A                      A
 Frequencies --   3117.8533              3119.9931              3120.5894
 Red. masses --      1.1003                 1.1010                 1.0947
 Frc consts  --      6.3017                 6.3148                 6.2811
 IR Inten    --     61.7730                13.7971                11.1861

 - Thermochemistry -
 -------------------
 Temperature   298.150 Kelvin.  Pressure   1.00000 Atm.
 Atom     1 has atomic number  8 and mass  15.99491

 Molecular mass:   140.12012 amu.
 Principal axes and moments of inertia in atomic units:
                           1         2         3
     Eigenvalues --   728.677772237.356572515.40369
           X            0.99980  -0.02008   0.00064
           Y            0.02008   0.99980   0.00002
           Z           -0.00064  -0.00001   1.00000
 This molecule is an asymmetric top.
 Rotational symmetry number  1.
 Warning -- assumption of classical behavior for rotation
           may cause significant error
 Rotational temperatures (Kelvin)      0.11886     0.03871     0.03443
 Rotational constants (GHZ):           2.47673     0.80664     0.71748
 Zero-point vibrational energy     616471.8 (Joules/Mol)
                                  147.34029 (Kcal/Mol)
 Warning -- explicit consideration of  17 degrees of freedom as
           vibrations may cause significant error
 Vibrational temperatures:     78.76   113.38   204.09   265.54   326.42
          (Kelvin)            381.00   382.43   424.17   455.52   484.67
                              542.68   611.71   658.09   716.91   749.87
                              785.73   835.54  1053.40  1119.32  1183.29
                             1238.77  1328.73  1353.36  1356.89  1383.47
                             1397.94  1416.13  1449.58  1494.54  1509.05
                             1588.94  1656.05  1703.45  1711.06  1781.17
                             1798.54  1822.00  1835.59  1859.67  1898.74
                             1923.72  1965.27  2012.77  2055.31  2058.35
                             2101.54  2128.41  2131.70  2178.75  2183.27
                             2185.54  2202.09  2214.43  2214.92  2228.58
                             2653.95  4310.39  4370.08  4374.18  4374.52
                             4377.59  4387.96  4403.69  4460.86  4466.61
                             4471.12  4472.04  4479.19  4481.37  4485.90
                             4488.97  4489.83

 Zero-point correction=                           0.234802 (Hartree/Particle)
 Thermal correction to Energy=                    0.245729
 Thermal correction to Enthalpy=                  0.246673
 Thermal correction to Gibbs Free Energy=         0.198843
 Sum of electronic and zero-point Energies=           -427.590334
 Sum of electronic and thermal Energies=              -427.579407
 Sum of electronic and thermal Enthalpies=            -427.578463
 Sum of electronic and thermal Free Energies=         -427.626293

                     E (Thermal)             CV                S
                      KCal/Mol        Cal/Mol-Kelvin    Cal/Mol-Kelvin
 Total                  154.197             42.279            100.667
 Electronic               0.000              0.000              0.000
 Translational            0.889              2.981             40.724
 Rotational               0.889              2.981             29.796
 Vibrational            152.420             36.317             30.148
 Vibration     1          0.596              1.976              4.638
 Vibration     2          0.600              1.963              3.921
 Vibration     3          0.615              1.911              2.779
 Vibration     4          0.631              1.861              2.282
 Vibration     5          0.651              1.800              1.904
 Vibration     6          0.671              1.738              1.630
 Vibration     7          0.672              1.736              1.623
 Vibration     8          0.689              1.683              1.446
 Vibration     9          0.703              1.642              1.328
 Vibration    10          0.718              1.602              1.227
 Vibration    11          0.748              1.519              1.050
 Vibration    12          0.787              1.416              0.875
 Vibration    13          0.816              1.345              0.774
 Vibration    14          0.854              1.254              0.662
 Vibration    15          0.876              1.203              0.607
 Vibration    16          0.901              1.148              0.552
 Vibration    17          0.937              1.073              0.484

 Normal termination of Gaussian 16 at Wed Feb 21 22:04:47 2024.
