 Gaussian 16, Revision A.03,
 Gaussian 16:  EM64M-G16RevA.03 25-Dec-2016

 ---------------------
 # freq b3lyp/6-31g(d)
 ---------------------

 ---------
 good luck
 ---------
 Symbolic Z-matrix:
 Charge =  0 Multiplicity = 1

                         Standard orientation:
 ---------------------------------------------------------------------
 Center     Atomic      Atomic             Coordinates (Angstroms)
 Number     Number       Type             X           Y           Z
 ---------------------------------------------------------------------
      1          8           0        1.950016    1.681216   -0.403016
      2          6           0        1.355721    0.636981   -0.248382
      3          6           0        0.089452    0.167520   -0.964250
      4          6           0        0.371198   -1.351837   -1.045705
      5          6           0       -1.090018    0.234451    0.081471
      6          6           0       -1.174588    1.589000    0.805454
      7          6           0       -2.432658   -0.022192   -0.627121
      8          6           0       -0.717173   -0.948242    1.052667
      9          6           0        0.599663   -1.520355    0.475818
     10          6           0        1.735119   -0.502883    0.717604
     11          1           0       -0.106137    0.714045   -1.889241
     12          1           0       -0.473588   -1.933422   -1.426472
     13          1           0        1.256039   -1.594859   -1.646036
     14          1           0       -0.270305    1.813811    1.380172
     15          1           0       -1.321251    2.408697    0.091996
     16          1           0       -2.021650    1.595336    1.502026
     17          1           0       -2.432893   -0.958703   -1.194894
     18          1           0       -3.244251   -0.083235    0.108549
     19          1           0       -2.671755    0.792552   -1.321184
     20          1           0       -1.502337   -1.713412    1.052731
     21          1           0       -0.598521   -0.607744    2.087956
     22          1           0        0.831318   -2.533797    0.815043
     23          1           0        1.819243   -0.138991    1.747835
     24          1           0        2.715663   -0.904662    0.430315
 ---------------------------------------------------------------------

 SCF Done:  E(RB3LYP) =  -426.608763866     A.U. after   13 cycles

 The electronic state is 1-A.
 Alpha  occ. eigenvalues --  -19.13269 -10.26633 -10.20804 -10.19770 -10.19120
 Alpha  occ. eigenvalues --  -10.19096 -10.18876 -10.18522 -10.17938 -10.17486
 Alpha  occ. eigenvalues --   -1.03191  -0.87987  -0.78604  -0.72466  -0.70747
 Alpha  occ. eigenvalues --   -0.68583  -0.65523  -0.56695  -0.55167  -0.52434
 Alpha  occ. eigenvalues --   -0.48639  -0.46974  -0.45869  -0.43285  -0.42329
 Alpha  occ. eigenvalues --   -0.41112  -0.39890  -0.39385  -0.38097  -0.37430
 Alpha  occ. eigenvalues --   -0.35930  -0.35605  -0.34602  -0.33313  -0.31909
 Alpha  occ. eigenvalues --   -0.31266  -0.30762  -0.23012
 Alpha virt. eigenvalues --   -0.00994   0.07357   0.10757   0.11652   0.12533
 Alpha virt. eigenvalues --    0.13661   0.14031   0.15338   0.15894   0.16233
 Alpha virt. eigenvalues --    0.16923   0.17829   0.18655   0.18756   0.19666

 Mulliken charges:
               1
     1  O   -0.464223
     2  C    0.459033
     3  C   -0.171879
     4  C   -0.294684
     5  C    0.110148
     6  C   -0.462530
     7  C   -0.458937
     8  C   -0.290682
     9  C   -0.114971
    10  C   -0.352662
    11  H    0.133180
    12  H    0.145466
    13  H    0.144740
    14  H    0.153760
    15  H    0.151246
    16  H    0.141820
    17  H    0.143425
    18  H    0.145348
    19  H    0.145650
    20  H    0.139264
    21  H    0.138263
    22  H    0.126239
    23  H    0.164186
    24  H    0.168799
 Sum of Mulliken charges =  -0.00000

 Dipole moment (field-independent basis, Debye):
    X=             -1.6647    Y=             -2.4786    Z=              0.4648  Tot=              3.0216
 Quadrupole moment (field-independent basis, Debye-Ang):
   XX=            -64.1391   YY=            -65.3170   ZZ=            -60.1802
   XY=             -5.8554   XZ=              1.2586   YZ=              1.2065

  Exact polarizability:  95.369   0.339  89.443   1.105  -0.902  81.209
 Approx polarizability: 130.680   7.640 133.975   0.119  -3.000 120.991

                      1                      2                      3
                      A                      A                      A
 Frequencies --    110.8085               140.3203               231.9918
 Red. masses --      3.1537                 3.9287                 1.2188
 Frc consts  --      0.0228                 0.0456                 0.0386
 IR Inten    --      2.6592                 2.2588                 0.2898

                      4                      5                      6
                      A                      A                      A
 Frequencies --    243.6869               267.3627               341.1067
 Red. masses --      1.8718                 1.0881                 2.5708
 Frc consts  --      0.0655                 0.0458                 0.1762
 IR Inten    --      0.1651                 0.0526                 0.0523

                      7                      8                      9
                      A                      A                      A
 Frequencies --    369.6577               393.6542               421.2291
 Red. masses --      2.6191                 2.0922                 2.2837
 Frc consts  --      0.2109                 0.1910                 0.2387
 IR Inten    --      1.1357                 0.0315                 1.3280

                     10                     11                     12
                      A                      A                      A
 Frequencies --    431.1759               489.5847               519.9023
 Red. masses --      2.2158                 2.7697                 3.5502
 Frc consts  --      0.2427                 0.3912                 0.5654
 IR Inten    --      0.9428                 5.6670                 1.3895

                     13                     14                     15
                      A                      A                      A
 Frequencies --    584.0146               632.0779               757.6425
 Red. masses --      2.6675                 3.8988                 3.2639
 Frc consts  --      0.5360                 0.9177                 1.1039
 IR Inten    --      0.8521                 1.0196                 1.0470

                     16                     17                     18
                      A                      A                      A
 Frequencies --    762.5819               817.3037               850.3821
 Red. masses --      4.6376                 2.9071                 2.6743
 Frc consts  --      1.5890                 1.1441                 1.1394
 IR Inten    --      4.9141                 1.9059                 2.3023

                     19                     20                     21
                      A                      A                      A
 Frequencies --    898.0747               915.0000               923.8904
 Red. masses --      1.9721                 2.1230                 2.2402
 Frc consts  --      0.9371                 1.0473                 1.1266
 IR Inten    --      2.4290                 7.7607                 0.8353

                     22                     23                     24
                      A                      A                      A
 Frequencies --    943.4525               961.6921               968.1083
 Red. masses --      2.1011                 1.5820                 2.0949
 Frc consts  --      1.1019                 0.8621                 1.1568
 IR Inten    --      1.4029                 1.0473                 0.7333

                     25                     26                     27
                      A                      A                      A
 Frequencies --    977.9671              1008.5742              1028.6489
 Red. masses --      1.8498                 1.5228                 1.4736
 Frc consts  --      1.0424                 0.9126                 0.9187
 IR Inten    --      1.9409                 0.2523                 4.2602

                     28                     29                     30
                      A                      A                      A
 Frequencies --   1043.0083              1106.4395              1130.7054
 Red. masses --      1.4646                 1.2935                 1.3811
 Frc consts  --      0.9387                 0.9330                 1.0403
 IR Inten    --     12.8785                 3.5243                 2.9750

                     31                     32                     33
                      A                      A                      A
 Frequencies --   1151.9020              1174.1083              1186.5910
 Red. masses --      1.1020                 2.4017                 1.8984
 Frc consts  --      0.8615                 1.9507                 1.5748
 IR Inten    --      0.6980                34.1301                 8.7159

                     34                     35                     36
                      A                      A                      A
 Frequencies --   1220.4567              1241.1782              1252.1551
 Red. masses --      2.1798                 1.5905                 2.1083
 Frc consts  --      1.9130                 1.4436                 1.9476
 IR Inten    --      5.4487                 0.6361                 2.4834

                     37                     38                     39
                      A                      A                      A
 Frequencies --   1282.5894              1293.0876              1313.7708
 Red. masses --      1.5404                 1.7288                 1.9331
 Frc consts  --      1.4930                 1.7032                 1.9658
 IR Inten    --      0.7711                 2.1574                 7.3385

                     40                     41                     42
                      A                      A                      A
 Frequencies --   1329.4721              1348.7456              1361.5569
 Red. masses --      1.6221                 1.6495                 1.5050
 Frc consts  --      1.6892                 1.7679                 1.6439
 IR Inten    --      0.0618                 9.0227                 0.6805

                     43                     44                     45
                      A                      A                      A
 Frequencies --   1432.0368              1454.6160              1481.6821
 Red. masses --      1.2319                 1.2152                 1.0906
 Frc consts  --      1.4885                 1.5150                 1.4107
 IR Inten    --      4.6563                 2.4664                 8.6791

                     46                     47                     48
                      A                      A                      A
 Frequencies --   1514.7197              1517.6622              1526.2696
 Red. masses --      1.0465                 1.0587                 1.0752
 Frc consts  --      1.4147                 1.4368                 1.4758
 IR Inten    --      0.5602                 1.8028                 7.1289

                     49                     50                     51
                      A                      A                      A
 Frequencies --   1532.7295              1539.2945              1546.7577
 Red. masses --      1.0603                 1.0554                 1.0898
 Frc consts  --      1.4675                 1.4734                 1.5361
 IR Inten    --      1.1037                 3.2007                 4.8492

                     52                     53                     54
                      A                      A                      A
 Frequencies --   1846.7810              3040.9134              3046.4952
 Red. masses --     12.2753                 1.0359                 1.0387
 Frc consts  --     24.6669                 5.6439                 5.6801
 IR Inten    --    225.9781                19.3734                21.8191

                     55                     56                     57
                      A                      A                      A
 Frequencies --   3054.9325              3055.6572              3068.6395
 Red. masses --      1.0578                 1.0624                 1.0623
 Frc consts  --      5.8163                 5.8447                 5.8936
 IR Inten    --     43.3572                10.2017                22.1022

                     58                     59                     60
                      A                      A                      A
 Frequencies --   3092.4399              3103.3290              3103.7032
 Red. masses --      1.1064                 1.1018                 1.1014
 Frc consts  --      6.2338                 6.2518                 6.2509
 IR Inten    --     16.7345                13.5601                 3.3049

                     61                     62                     63
                      A                      A                      A
 Frequencies --   3108.1759              3110.2452              3114.0654
 Red. masses --      1.0894                 1.1018                 1.1037
 Frc consts  --      6.2005                 6.2797                 6.3058
 IR Inten    --     47.6521                45.7596                25.5213

                     64                     65                     66
                      A                      A                      A
 Frequencies --   3122.6972              3123.8386              3131.6892
 Red. masses --      1.1010                 1.1006                 1.0888
 Frc consts  --      6.3256                 6.3278                 6.2917
 IR Inten    --     33.7615                35.4553                24.2334

 - Thermochemistry -
 -------------------
 Temperature   298.150 Kelvin.  Pressure   1.00000 Atm.
 Atom     1 has atomic number  8 and mass  15.99491

 Molecular mass:   138.10447 amu.
 Principal axes and moments of inertia in atomic units:
                           1         2         3
     Eigenvalues --   936.721771309.060951621.35570
           X            0.99585  -0.08960   0.01616
           Y            0.08896   0.99535   0.03691
           Z           -0.01939  -0.03532   0.99919
 This molecule is an asymmetric top.
 Rotational symmetry number  1.
 Warning -- assumption of classical behavior for rotation
           may cause significant error
 Rotational temperatures (Kelvin)      0.09246     0.06616     0.05342
 Rotational constants (GHZ):           1.92666     1.37865     1.11311
 Zero-point vibrational energy     562813.3 (Joules/Mol)
                                  134.51560 (Kcal/Mol)
 Warning -- explicit consideration of  13 degrees of freedom as
           vibrations may cause significant error
 Vibrational temperatures:    159.43   201.89   333.78   350.61   384.68
          (Kelvin)            490.78   531.85   566.38   606.05   620.37
                              704.40   748.02   840.27   909.42  1090.08
                             1097.19  1175.92  1223.51  1292.13  1316.48
                             1329.27  1357.42  1383.66  1392.89  1407.08
                             1451.11  1480.00  1500.66  1591.92  1626.83
                             1657.33  1689.28  1707.24  1755.97  1785.78
                             1801.57  1845.36  1860.46  1890.22  1912.81
                             1940.54  1958.98  2060.38  2092.87  2131.81
                             2179.34  2183.58  2195.96  2205.26  2214.70
                             2225.44  2657.11  4375.20  4383.23  4395.37
                             4396.41  4415.09  4449.33  4465.00  4465.54
                             4471.97  4474.95  4480.45  4492.86  4494.51
                             4505.80

 Zero-point correction=                           0.214364 (Hartree/Particle)
 Thermal correction to Energy=                    0.223390
 Thermal correction to Enthalpy=                  0.224334
 Thermal correction to Gibbs Free Energy=         0.181189
 Sum of electronic and zero-point Energies=           -426.394400
 Sum of electronic and thermal Energies=              -426.385374
 Sum of electronic and thermal Enthalpies=            -426.384430
 Sum of electronic and thermal Free Energies=         -426.427575

                     E (Thermal)             CV                S
                      KCal/Mol        Cal/Mol-Kelvin    Cal/Mol-Kelvin
 Total                  140.179             37.140             90.807
 Electronic               0.000              0.000              0.000
 Translational            0.889              2.981             40.680
 Rotational               0.889              2.981             29.076
 Vibrational            138.402             31.179             21.050
 Vibration     1          0.607              1.941              3.255
 Vibration     2          0.615              1.913              2.800
 Vibration     3          0.653              1.792              1.863
 Vibration     4          0.659              1.773              1.776
 Vibration     5          0.672              1.733              1.613
 Vibration     6          0.721              1.593              1.207
 Vibration     7          0.742              1.535              1.081
 Vibration     8          0.761              1.484              0.986
 Vibration     9          0.784              1.424              0.888
 Vibration    10          0.792              1.402              0.855
 Vibration    11          0.845              1.273              0.685
 Vibration    12          0.875              1.206              0.610
 Vibration    13          0.941              1.066              0.478

 Normal termination of Gaussian 16 at Wed Feb 21 19:22:13 2024.
