 Gaussian 16, Revision A.03,
 Gaussian 16:  EM64M-G16RevA.03 25-Dec-2016

 ---------------------
 # freq b3lyp/6-31g(d)
 ---------------------

 ---------
 good luck
 ---------
 Symbolic Z-matrix:
 Charge =  0 Multiplicity = 1

                         Standard orientation:
 ---------------------------------------------------------------------
 Center     Atomic      Atomic             Coordinates (Angstroms)
 Number     Number       Type             X           Y           Z
 ---------------------------------------------------------------------
      1          8           0        2.511664   -1.476902   -0.000000
      2          6           0        1.505274   -0.795856   -0.000000
      3          6           0        0.806788   -0.312017   -1.271173
      4          6           0       -0.654674   -0.826084   -1.256396
      5          6           0        0.806788    1.238937   -1.258614
      6          6           0        0.075751    1.750770    0.000000
      7          6           0        0.806788    1.238937    1.258614
      8          6           0        0.806788   -0.312017    1.271173
      9          6           0       -0.654674   -0.826084    1.256396
     10          6           0       -1.360686   -0.302581    0.000000
     11          9           0       -2.682550   -0.771677    0.000000
     12          6           0       -1.378043    1.228731    0.000000
     13          1           0        1.351050   -0.700780   -2.137026
     14          1           0       -1.187265   -0.477117   -2.149894
     15          1           0       -0.684400   -1.922404   -1.263646
     16          1           0        0.312821    1.609235   -2.166738
     17          1           0        1.838009    1.613872   -1.277996
     18          1           0        0.071232    2.847783    0.000000
     19          1           0        0.312821    1.609235    2.166738
     20          1           0        1.838009    1.613872    1.277996
     21          1           0        1.351050   -0.700780    2.137026
     22          1           0       -1.187265   -0.477117    2.149894
     23          1           0       -0.684400   -1.922404    1.263646
     24          1           0       -1.921303    1.585245    0.884137
     25          1           0       -1.921303    1.585245   -0.884137
 ---------------------------------------------------------------------

 SCF Done:  E(RB3LYP) =  -563.975224978     A.U. after   14 cycles

 The electronic state is 1-A'.
 Alpha  occ. eigenvalues --  -24.66863 -19.13922 -10.27052 -10.26800 -10.20505
 Alpha  occ. eigenvalues --  -10.20255 -10.20254 -10.19880 -10.19879 -10.19604
 Alpha  occ. eigenvalues --  -10.19603 -10.19125  -1.17457  -1.03762  -0.88203
 Alpha  occ. eigenvalues --   -0.78893  -0.78192  -0.76475  -0.68697  -0.65770
 Alpha  occ. eigenvalues --   -0.61342  -0.59677  -0.58077  -0.52108  -0.48980
 Alpha  occ. eigenvalues --   -0.47105  -0.46530  -0.45858  -0.45261  -0.44289
 Alpha  occ. eigenvalues --   -0.43264  -0.42959  -0.41148  -0.40795  -0.38394
 Alpha  occ. eigenvalues --   -0.38040  -0.37186  -0.36894  -0.34871  -0.33476
 Alpha  occ. eigenvalues --   -0.33220  -0.32844  -0.30178  -0.29765  -0.23643
 Alpha virt. eigenvalues --   -0.01676   0.05944   0.10803   0.11242   0.12182
 Alpha virt. eigenvalues --    0.12281   0.12983   0.13459   0.15481   0.15693
 Alpha virt. eigenvalues --    0.16381   0.17322   0.18317   0.18849   0.19066

 Mulliken charges:
               1
     1  O   -0.453641
     2  C    0.456347
     3  C   -0.178251
     4  C   -0.318320
     5  C   -0.281931
     6  C   -0.106271
     7  C   -0.281931
     8  C   -0.178251
     9  C   -0.318320
    10  C    0.402168
    11  F   -0.349181
    12  C   -0.306385
    13  H    0.150055
    14  H    0.149086
    15  H    0.155872
    16  H    0.142982
    17  H    0.148917
    18  H    0.133694
    19  H    0.142982
    20  H    0.148917
    21  H    0.150055
    22  H    0.149086
    23  H    0.155872
    24  H    0.143224
    25  H    0.143224
 Sum of Mulliken charges =  -0.00000

 Dipole moment (field-independent basis, Debye):
    X=             -0.7827    Y=              2.4676    Z=              0.0000  Tot=              2.5888
 Quadrupole moment (field-independent basis, Debye-Ang):
   XX=            -83.9198   YY=            -71.2069   ZZ=            -66.6322
   XY=              3.8244   XZ=              0.0000   YZ=              0.0000

  Exact polarizability:  98.096  -4.370  93.769  -0.000  -0.000  93.600
 Approx polarizability: 148.954 -10.034 138.385   0.000   0.000 135.307

                      1                      2                      3
                     A'                     A"                     A"
 Frequencies --     99.1727               249.4301               274.8808
 Red. masses --      8.9375                 2.8617                 2.3673
 Frc consts  --      0.0518                 0.1049                 0.1054
 IR Inten    --      4.1917                 1.1546                 0.9403

                      4                      5                      6
                     A'                     A"                     A'
 Frequencies --    297.8460               353.4610               365.1113
 Red. masses --      3.7999                 3.8388                 5.8393
 Frc consts  --      0.1986                 0.2826                 0.4586
 IR Inten    --      1.8000                 4.0289                 1.3412

                      7                      8                      9
                     A"                     A'                     A'
 Frequencies --    391.9330               402.6118               452.0881
 Red. masses --      4.4089                 2.4031                 2.1301
 Frc consts  --      0.3990                 0.2295                 0.2565
 IR Inten    --      0.3505                 0.7634                 1.6999

                     10                     11                     12
                     A"                     A"                     A'
 Frequencies --    454.3784               478.0921               512.2779
 Red. masses --      2.2776                 3.0953                 4.8225
 Frc consts  --      0.2771                 0.4169                 0.7457
 IR Inten    --      7.6211                 2.6773                 6.3056

                     13                     14                     15
                     A'                     A"                     A'
 Frequencies --    611.4833               632.8459               711.6493
 Red. masses --      5.5998                 3.5216                 3.4175
 Frc consts  --      1.2336                 0.8310                 1.0197
 IR Inten    --      0.5260                 1.4879                 0.3652

                     16                     17                     18
                     A'                     A'                     A'
 Frequencies --    729.0080               788.7213               803.7837
 Red. masses --      4.4476                 3.6765                 2.7966
 Frc consts  --      1.3927                 1.3475                 1.0645
 IR Inten    --      0.9034                 0.0244                 0.6114

                     19                     20                     21
                     A"                     A"                     A'
 Frequencies --    855.9223               904.5940               909.3178
 Red. masses --      2.6398                 1.5459                 2.2383
 Frc consts  --      1.1394                 0.7453                 1.0904
 IR Inten    --      1.4213                 3.8002                 8.8273

                     22                     23                     24
                     A"                     A'                     A"
 Frequencies --    913.1388               938.1682               952.8766
 Red. masses --      1.5804                 3.2412                 2.0693
 Frc consts  --      0.7764                 1.6808                 1.1070
 IR Inten    --      1.7146                25.6842                 3.6181

                     25                     26                     27
                     A'                     A'                     A"
 Frequencies --    982.5356               996.9011              1025.4296
 Red. masses --      2.4861                 2.0820                 1.9708
 Frc consts  --      1.4141                 1.2191                 1.2210
 IR Inten    --     14.5602                 0.3105                 0.2274

                     28                     29                     30
                     A'                     A"                     A"
 Frequencies --   1047.8926              1066.5396              1069.1686
 Red. masses --      2.1407                 1.8467                 1.7050
 Frc consts  --      1.3849                 1.2377                 1.1483
 IR Inten    --      0.8668                 5.1771                31.8021

                     31                     32                     33
                     A'                     A'                     A"
 Frequencies --   1087.7539              1118.6877              1129.0231
 Red. masses --      1.7566                 1.4261                 1.1064
 Frc consts  --      1.2246                 1.0515                 0.8309
 IR Inten    --     10.4122                 6.7084                 0.7526

                     34                     35                     36
                     A'                     A"                     A'
 Frequencies --   1146.7248              1152.8573              1205.7917
 Red. masses --      4.8586                 1.2044                 1.1182
 Frc consts  --      3.7642                 0.9431                 0.9579
 IR Inten    --     55.3156                 0.0980                 0.7650

                     37                     38                     39
                     A"                     A"                     A'
 Frequencies --   1238.1291              1261.9229              1284.2873
 Red. masses --      1.8429                 1.5246                 1.7130
 Frc consts  --      1.6645                 1.4305                 1.6647
 IR Inten    --      3.7024                 7.4947                 0.1868

                     40                     41                     42
                     A'                     A"                     A"
 Frequencies --   1309.0014              1309.5484              1322.0684
 Red. masses --      1.7612                 1.4981                 1.7516
 Frc consts  --      1.7780                 1.5137                 1.8038
 IR Inten    --      5.8143                 0.9767                12.0805

                     43                     44                     45
                     A'                     A'                     A"
 Frequencies --   1330.3546              1346.9521              1357.5317
 Red. masses --      1.6967                 1.6981                 1.6983
 Frc consts  --      1.7693                 1.8151                 1.8440
 IR Inten    --      6.3244                 2.8821                 0.2585

                     46                     47                     48
                     A"                     A'                     A"
 Frequencies --   1378.3768              1391.1684              1394.1291
 Red. masses --      1.5429                 1.4446                 1.6100
 Frc consts  --      1.7271                 1.6472                 1.8436
 IR Inten    --      5.7387                 3.4342                 0.0123

                     49                     50                     51
                     A'                     A'                     A"
 Frequencies --   1396.9674              1406.3059              1509.9242
 Red. masses --      1.6609                 1.5053                 1.0871
 Frc consts  --      1.9098                 1.7540                 1.4603
 IR Inten    --      2.1842                 6.5052                 0.0968

                     52                     53                     54
                     A'                     A"                     A'
 Frequencies --   1516.7132              1523.1314              1526.9707
 Red. masses --      1.0907                 1.0917                 1.0962
 Frc consts  --      1.4783                 1.4922                 1.5059
 IR Inten    --      4.4713                13.1567                 5.1250

                     55                     56                     57
                     A'                     A'                     A"
 Frequencies --   1549.1215              1824.8059              3038.8940
 Red. masses --      1.0998                11.3184                 1.0598
 Frc consts  --      1.5551                22.2059                 5.7662
 IR Inten    --      0.1697               211.1825                31.8360

                     58                     59                     60
                     A'                     A'                     A"
 Frequencies --   3039.1149              3045.1357              3048.7697
 Red. masses --      1.0637                 1.0615                 1.0594
 Frc consts  --      5.7885                 5.7994                 5.8016
 IR Inten    --     10.5375                 9.1968                24.8354

                     61                     62                     63
                     A'                     A'                     A"
 Frequencies --   3053.6499              3063.6377              3077.6372
 Red. masses --      1.0628                 1.0790                 1.1054
 Frc consts  --      5.8389                 5.9671                 6.1689
 IR Inten    --     44.3096                63.4934                 5.3023

                     64                     65                     66
                     A'                     A"                     A"
 Frequencies --   3081.9835              3087.6629              3092.9954
 Red. masses --      1.1040                 1.1059                 1.1055
 Frc consts  --      6.1784                 6.2121                 6.2314
 IR Inten    --     47.6417                 8.5743                45.3015

                     67                     68                     69
                     A'                     A"                     A'
 Frequencies --   3095.4837              3097.7536              3099.4889
 Red. masses --      1.1052                 1.0867                 1.0870
 Frc consts  --      6.2395                 6.1441                 6.1528
 IR Inten    --     34.8595                28.2521                17.8002

 - Thermochemistry -
 -------------------
 Temperature   298.150 Kelvin.  Pressure   1.00000 Atm.
 Atom     1 has atomic number  8 and mass  15.99491

 Molecular mass:   168.09504 amu.
 Principal axes and moments of inertia in atomic units:
                           1         2         3
     Eigenvalues --  1240.073871875.617532038.97626
           X            0.99671   0.08110   0.00000
           Y           -0.08110   0.99671   0.00000
           Z            0.00000  -0.00000   1.00000
 This molecule is an asymmetric top.
 Rotational symmetry number  1.
 Warning -- assumption of classical behavior for rotation
           may cause significant error
 Rotational temperatures (Kelvin)      0.06985     0.04618     0.04248
 Rotational constants (GHZ):           1.45535     0.96221     0.88512
 Zero-point vibrational energy     569492.5 (Joules/Mol)
                                  136.11198 (Kcal/Mol)
 Warning -- explicit consideration of  13 degrees of freedom as
           vibrations may cause significant error
 Vibrational temperatures:    142.69   358.87   395.49   428.53   508.55
          (Kelvin)            525.31   563.90   579.27   650.45   653.75
                              687.87   737.05   879.79   910.52  1023.90
                             1048.88  1134.79  1156.47  1231.48  1301.51
                             1308.31  1313.80  1349.81  1370.98  1413.65
                             1434.32  1475.36  1507.68  1534.51  1538.30
                             1565.04  1609.54  1624.41  1649.88  1658.70
                             1734.87  1781.39  1815.63  1847.80  1883.36
                             1884.15  1902.16  1914.08  1937.96  1953.19
                             1983.18  2001.58  2005.84  2009.92  2023.36
                             2172.44  2182.21  2191.45  2196.97  2228.84
                             2625.49  4372.29  4372.61  4381.27  4386.50
                             4393.52  4407.89  4428.03  4434.29  4442.46
                             4450.13  4453.71  4456.98  4459.47

 Zero-point correction=                           0.216908 (Hartree/Particle)
 Thermal correction to Energy=                    0.225608
 Thermal correction to Enthalpy=                  0.226552
 Thermal correction to Gibbs Free Energy=         0.183626
 Sum of electronic and zero-point Energies=           -563.758317
 Sum of electronic and thermal Energies=              -563.749617
 Sum of electronic and thermal Enthalpies=            -563.748673
 Sum of electronic and thermal Free Energies=         -563.791599

                     E (Thermal)             CV                S
                      KCal/Mol        Cal/Mol-Kelvin    Cal/Mol-Kelvin
 Total                  141.571             37.927             90.345
 Electronic               0.000              0.000              0.000
 Translational            0.889              2.981             41.266
 Rotational               0.889              2.981             29.940
 Vibrational            139.793             31.965             19.139
 Vibration     1          0.604              1.950              3.471
 Vibration     2          0.662              1.764              1.735
 Vibration     3          0.677              1.720              1.565
 Vibration     4          0.691              1.678              1.429
 Vibration     5          0.730              1.568              1.151
 Vibration     6          0.738              1.544              1.100
 Vibration     7          0.759              1.487              0.993
 Vibration     8          0.768              1.464              0.953
 Vibration     9          0.811              1.356              0.789
 Vibration    10          0.813              1.351              0.783
 Vibration    11          0.835              1.299              0.715
 Vibration    12          0.867              1.223              0.628
 Vibration    13          0.971              1.008              0.430

 Optimization completed.
    -- Stationary point found.
 Normal termination of Gaussian 16 at Sat Feb 24 04:57:16 2024.
