 Gaussian 16, Revision A.03,
 Gaussian 16:  EM64M-G16RevA.03 25-Dec-2016

 ---------------------
 # freq b3lyp/6-31g(d)
 ---------------------

 ---------
 good luck
 ---------
 Symbolic Z-matrix:
 Charge =  0 Multiplicity = 1

                         Standard orientation:
 ---------------------------------------------------------------------
 Center     Atomic      Atomic             Coordinates (Angstroms)
 Number     Number       Type             X           Y           Z
 ---------------------------------------------------------------------
      1          8           0       -2.658055   -0.439892   -0.345592
      2          6           0       -1.499087   -0.255389   -0.045391
      3          6           0       -0.944121    0.980084    0.673513
      4          6           0        0.586112    0.901816    0.496148
      5          6           0        1.042443    1.628546   -0.777837
      6          6           0        0.849929   -0.638619    0.482602
      7          6           0        2.228210   -1.079002   -0.010538
      8          6           0       -0.336034   -1.216155   -0.313237
      9          1           0       -1.409113    1.896982    0.297055
     10          1           0       -1.224127    0.890542    1.733418
     11          1           0        1.104189    1.354355    1.350639
     12          1           0        0.776437    2.690508   -0.725240
     13          1           0        0.568681    1.218993   -1.679006
     14          1           0        2.127071    1.565568   -0.914290
     15          1           0        0.741433   -0.977723    1.523841
     16          1           0        2.349282   -2.163874    0.089607
     17          1           0        2.379862   -0.827230   -1.066466
     18          1           0        3.029018   -0.601420    0.567349
     19          1           0       -0.608272   -2.243217   -0.049134
     20          1           0       -0.134723   -1.212041   -1.394599
 ---------------------------------------------------------------------

 SCF Done:  E(RB3LYP) =  -349.200268930     A.U. after   13 cycles

 The electronic state is 1-A.
 Alpha  occ. eigenvalues --  -19.13294 -10.26964 -10.19767 -10.19745 -10.18831
 Alpha  occ. eigenvalues --  -10.18802 -10.18175 -10.18147  -1.03271  -0.84770
 Alpha  occ. eigenvalues --   -0.75198  -0.73051  -0.68602  -0.63224  -0.55044
 Alpha  occ. eigenvalues --   -0.53062  -0.49243  -0.45549  -0.45194  -0.42504
 Alpha  occ. eigenvalues --   -0.41161  -0.41058  -0.39811  -0.38630  -0.38022
 Alpha  occ. eigenvalues --   -0.35885  -0.34285  -0.33084  -0.32398  -0.31651
 Alpha  occ. eigenvalues --   -0.23413
 Alpha virt. eigenvalues --   -0.01349   0.07076   0.10680   0.12305   0.13092
 Alpha virt. eigenvalues --    0.14373   0.15103   0.15785   0.16713   0.16885
 Alpha virt. eigenvalues --    0.17818   0.19102   0.19391   0.20649   0.22151

 Mulliken charges:
               1
     1  O   -0.449512
     2  C    0.444696
     3  C   -0.357021
     4  C   -0.098337
     5  C   -0.455162
     6  C   -0.085381
     7  C   -0.453894
     8  C   -0.358236
     9  H    0.166684
    10  H    0.169064
    11  H    0.127015
    12  H    0.148872
    13  H    0.144400
    14  H    0.151263
    15  H    0.129895
    16  H    0.147048
    17  H    0.147101
    18  H    0.144236
    19  H    0.168991
    20  H    0.168277
 Sum of Mulliken charges =  -0.00000

 Dipole moment (field-independent basis, Debye):
    X=              2.8833    Y=              0.4424    Z=              0.7666  Tot=              3.0161
 Quadrupole moment (field-independent basis, Debye-Ang):
   XX=            -59.8284   YY=            -48.1050   ZZ=            -48.3433
   XY=             -1.9184   XZ=             -1.9494   YZ=             -0.1601

  Exact polarizability:  80.028  -0.706  72.381   0.842   1.654  62.520
 Approx polarizability: 110.240   1.428  97.125   4.275   3.041  94.087

                      1                      2                      3
                      A                      A                      A
 Frequencies --     75.1740               137.9531               229.9047
 Red. masses --      3.5572                 2.4029                 1.1029
 Frc consts  --      0.0118                 0.0269                 0.0343
 IR Inten    --      4.7024                 0.3428                 0.0297

                      4                      5                      6
                      A                      A                      A
 Frequencies --    241.9765               287.3386               302.6690
 Red. masses --      1.4685                 1.4064                 2.5604
 Frc consts  --      0.0507                 0.0684                 0.1382
 IR Inten    --      0.1592                 0.1283                 1.1551

                      7                      8                      9
                      A                      A                      A
 Frequencies --    356.3898               463.0121               481.4696
 Red. masses --      1.9697                 2.4401                 2.9645
 Frc consts  --      0.1474                 0.3082                 0.4049
 IR Inten    --      0.8649                 1.3934                 2.2701

                     10                     11                     12
                      A                      A                      A
 Frequencies --    487.8543               549.1956               648.6446
 Red. masses --      2.9483                 3.0180                 3.4205
 Frc consts  --      0.4134                 0.5363                 0.8479
 IR Inten    --      4.9624                 5.4735                 1.9750

                     13                     14                     15
                      A                      A                      A
 Frequencies --    755.2557               771.6772               828.9586
 Red. masses --      2.8887                 2.1211                 2.2522
 Frc consts  --      0.9708                 0.7442                 0.9119
 IR Inten    --      3.1974                 0.6330                 1.0309

                     16                     17                     18
                      A                      A                      A
 Frequencies --    897.0031               927.7883               956.9676
 Red. masses --      1.9810                 1.5883                 1.7902
 Frc consts  --      0.9391                 0.8055                 0.9659
 IR Inten    --      0.0748                 2.6874                 0.6812

                     19                     20                     21
                      A                      A                      A
 Frequencies --   1015.2486              1024.5787              1040.7580
 Red. masses --      1.7330                 1.2539                 1.3228
 Frc consts  --      1.0525                 0.7755                 0.8442
 IR Inten    --      2.3135                 1.5879                 2.0948

                     22                     23                     24
                      A                      A                      A
 Frequencies --   1090.7857              1124.7794              1167.6490
 Red. masses --      2.3643                 1.5655                 1.9818
 Frc consts  --      1.6574                 1.1669                 1.5920
 IR Inten    --      2.2908                12.3668                 3.7471

                     25                     26                     27
                      A                      A                      A
 Frequencies --   1170.2561              1216.2703              1238.0693
 Red. masses --      3.4219                 1.6499                 1.5454
 Frc consts  --      2.7611                 1.4380                 1.3957
 IR Inten    --     64.9733                 0.8406                 1.4548

                     28                     29                     30
                      A                      A                      A
 Frequencies --   1276.9264              1283.7304              1332.1789
 Red. masses --      1.6073                 1.5138                 1.4567
 Frc consts  --      1.5442                 1.4698                 1.5232
 IR Inten    --      2.9221                 4.9897                 5.9253

                     31                     32                     33
                      A                      A                      A
 Frequencies --   1350.0136              1396.5163              1398.7780
 Red. masses --      1.3766                 1.4082                 1.4165
 Frc consts  --      1.4782                 1.6180                 1.6329
 IR Inten    --      2.7627                 6.1422                 1.1123

                     34                     35                     36
                      A                      A                      A
 Frequencies --   1440.8507              1444.3320              1477.7481
 Red. masses --      1.2892                 1.2323                 1.0845
 Frc consts  --      1.5769                 1.5146                 1.3953
 IR Inten    --      3.2198                 5.4003                15.2266

                     37                     38                     39
                      A                      A                      A
 Frequencies --   1485.5176              1524.4606              1525.6344
 Red. masses --      1.0997                 1.0464                 1.0508
 Frc consts  --      1.4299                 1.4328                 1.4411
 IR Inten    --      1.3857                 5.1700                 3.2750

                     40                     41                     42
                      A                      A                      A
 Frequencies --   1532.5471              1540.9060              1844.6843
 Red. masses --      1.0439                 1.0487                12.5565
 Frc consts  --      1.4446                 1.4671                25.1746
 IR Inten    --      8.2668                 0.8633               227.3217

                     43                     44                     45
                      A                      A                      A
 Frequencies --   3010.3428              3036.0049              3038.3601
 Red. masses --      1.0836                 1.0691                 1.0660
 Frc consts  --      5.7859                 5.8059                 5.7981
 IR Inten    --     19.9626                12.6753                 7.0849

                     46                     47                     48
                      A                      A                      A
 Frequencies --   3043.0810              3047.5523              3056.8087
 Red. masses --      1.0365                 1.0405                 1.0842
 Frc consts  --      5.6552                 5.6937                 5.9692
 IR Inten    --     23.4625                22.9453                30.2658

                     49                     50                     51
                      A                      A                      A
 Frequencies --   3106.4135              3107.2067              3108.3050
 Red. masses --      1.1008                 1.0992                 1.0979
 Frc consts  --      6.2586                 6.2526                 6.2497
 IR Inten    --      1.2009                66.4494                 1.7854

                     52                     53                     54
                      A                      A                      A
 Frequencies --   3110.2084              3113.6088              3122.7029
 Red. masses --      1.0949                 1.1010                 1.1011
 Frc consts  --      6.2402                 6.2889                 6.3262
 IR Inten    --     14.2312                54.4457                25.8829

 - Thermochemistry -
 -------------------
 Temperature   298.150 Kelvin.  Pressure   1.00000 Atm.
 Atom     1 has atomic number  8 and mass  15.99491

 Molecular mass:   112.08882 amu.
 Principal axes and moments of inertia in atomic units:
                           1         2         3
     Eigenvalues --   574.042461088.936981402.65617
           X            0.99947  -0.02834  -0.01607
           Y            0.02821   0.99956  -0.00871
           Z            0.01631   0.00825   0.99983
 This molecule is an asymmetric top.
 Rotational symmetry number  1.
 Warning -- assumption of classical behavior for rotation
           may cause significant error
 Rotational temperatures (Kelvin)      0.15088     0.07954     0.06175
 Rotational constants (GHZ):           3.14392     1.65734     1.28666
 Zero-point vibrational energy     467997.4 (Joules/Mol)
                                  111.85405 (Kcal/Mol)
 Warning -- explicit consideration of  11 degrees of freedom as
           vibrations may cause significant error
 Vibrational temperatures:    108.16   198.48   330.78   348.15   413.42
          (Kelvin)            435.47   512.77   666.17   692.73   701.91
                              790.17   933.25  1086.64  1110.27  1192.69
                             1290.59  1334.88  1376.86  1460.72  1474.14
                             1497.42  1569.40  1618.31  1679.99  1683.74
                             1749.94  1781.31  1837.21  1847.00  1916.71
                             1942.37  2009.28  2012.53  2073.06  2078.07
                             2126.15  2137.33  2193.36  2195.05  2204.99
                             2217.02  2654.09  4331.21  4368.13  4371.52
                             4378.31  4384.75  4398.07  4469.44  4470.58
                             4472.16  4474.90  4479.79  4492.87

 Zero-point correction=                           0.178251 (Hartree/Particle)
 Thermal correction to Energy=                    0.186514
 Thermal correction to Enthalpy=                  0.187458
 Thermal correction to Gibbs Free Energy=         0.145761
 Sum of electronic and zero-point Energies=           -349.022018
 Sum of electronic and thermal Energies=              -349.013755
 Sum of electronic and thermal Enthalpies=            -349.012811
 Sum of electronic and thermal Free Energies=         -349.054508

                     E (Thermal)             CV                S
                      KCal/Mol        Cal/Mol-Kelvin    Cal/Mol-Kelvin
 Total                  117.039             31.583             87.759
 Electronic               0.000              0.000              0.000
 Translational            0.889              2.981             40.058
 Rotational               0.889              2.981             28.263
 Vibrational            115.262             25.621             19.438
 Vibration     1          0.599              1.966              4.013
 Vibration     2          0.614              1.915              2.832
 Vibration     3          0.652              1.795              1.880
 Vibration     4          0.658              1.776              1.788
 Vibration     5          0.685              1.697              1.490
 Vibration     6          0.694              1.669              1.402
 Vibration     7          0.732              1.562              1.138
 Vibration     8          0.821              1.332              0.757
 Vibration     9          0.838              1.291              0.706
 Vibration    10          0.844              1.277              0.689
 Vibration    11          0.904              1.141              0.546

 Normal termination of Gaussian 16 at Wed Feb 21 18:13:30 2024.
