 Gaussian 16, Revision A.03,
 Gaussian 16:  EM64M-G16RevA.03 25-Dec-2016

 ---------------------
 # freq b3lyp/6-31g(d)
 ---------------------

 ---------
 good luck
 ---------
 Symbolic Z-matrix:
 Charge =  0 Multiplicity = 1

                         Standard orientation:
 ---------------------------------------------------------------------
 Center     Atomic      Atomic             Coordinates (Angstroms)
 Number     Number       Type             X           Y           Z
 ---------------------------------------------------------------------
      1          8           0        2.658059   -0.439874   -0.345601
      2          6           0        1.499090   -0.255377   -0.045397
      3          6           0        0.336050   -1.216167   -0.313209
      4          6           0       -0.849922   -0.638624    0.482604
      5          6           0       -2.228192   -1.079016   -0.010551
      6          6           0       -0.586115    0.901811    0.496149
      7          6           0       -1.042476    1.628542   -0.777822
      8          6           0        0.944116    0.980101    0.673492
      9          1           0        0.608302   -2.243216   -0.049073
     10          1           0        0.134740   -1.212096   -1.394572
     11          1           0       -0.741444   -0.977716    1.523849
     12          1           0       -3.029015   -0.601429    0.567310
     13          1           0       -2.349264   -2.163888    0.089608
     14          1           0       -2.379824   -0.827263   -1.066487
     15          1           0       -1.104189    1.354342    1.350648
     16          1           0       -2.127095    1.565534   -0.914278
     17          1           0       -0.776510    2.690507   -0.725218
     18          1           0       -0.568704    1.219024   -1.678996
     19          1           0        1.409094    1.897001    0.297022
     20          1           0        1.224135    0.890570    1.733396
 ---------------------------------------------------------------------

 SCF Done:  E(RB3LYP) =  -349.200268926     A.U. after   13 cycles

 The electronic state is 1-A.
 Alpha  occ. eigenvalues --  -19.13294 -10.26964 -10.19767 -10.19745 -10.18831
 Alpha  occ. eigenvalues --  -10.18802 -10.18175 -10.18147  -1.03271  -0.84770
 Alpha  occ. eigenvalues --   -0.75198  -0.73051  -0.68602  -0.63224  -0.55044
 Alpha  occ. eigenvalues --   -0.53062  -0.49243  -0.45549  -0.45194  -0.42504
 Alpha  occ. eigenvalues --   -0.41161  -0.41059  -0.39811  -0.38630  -0.38022
 Alpha  occ. eigenvalues --   -0.35885  -0.34285  -0.33084  -0.32398  -0.31651
 Alpha  occ. eigenvalues --   -0.23413
 Alpha virt. eigenvalues --   -0.01349   0.07076   0.10680   0.12305   0.13092
 Alpha virt. eigenvalues --    0.14373   0.15103   0.15785   0.16713   0.16884
 Alpha virt. eigenvalues --    0.17818   0.19102   0.19391   0.20649   0.22151

 Mulliken charges:
               1
     1  O   -0.449512
     2  C    0.444695
     3  C   -0.358235
     4  C   -0.085380
     5  C   -0.453894
     6  C   -0.098337
     7  C   -0.455164
     8  C   -0.357021
     9  H    0.168992
    10  H    0.168277
    11  H    0.129894
    12  H    0.144236
    13  H    0.147047
    14  H    0.147101
    15  H    0.127015
    16  H    0.151264
    17  H    0.148873
    18  H    0.144400
    19  H    0.166685
    20  H    0.169064
 Sum of Mulliken charges =  -0.00000

 Dipole moment (field-independent basis, Debye):
    X=             -2.8833    Y=              0.4424    Z=              0.7666  Tot=              3.0161
 Quadrupole moment (field-independent basis, Debye-Ang):
   XX=            -59.8284   YY=            -48.1049   ZZ=            -48.3433
   XY=              1.9183   XZ=              1.9495   YZ=             -0.1601

  Exact polarizability:  80.028   0.706  72.381  -0.842   1.654  62.520
 Approx polarizability: 110.240  -1.428  97.125  -4.275   3.041  94.087

                      1                      2                      3
                      A                      A                      A
 Frequencies --     75.1655               137.9371               229.8262
 Red. masses --      3.5571                 2.4028                 1.1030
 Frc consts  --      0.0118                 0.0269                 0.0343
 IR Inten    --      4.7025                 0.3428                 0.0297

                      4                      5                      6
                      A                      A                      A
 Frequencies --    241.9754               287.3205               302.6629
 Red. masses --      1.4679                 1.4068                 2.5605
 Frc consts  --      0.0506                 0.0684                 0.1382
 IR Inten    --      0.1591                 0.1283                 1.1550

                      7                      8                      9
                      A                      A                      A
 Frequencies --    356.3823               463.0105               481.4674
 Red. masses --      1.9698                 2.4401                 2.9642
 Frc consts  --      0.1474                 0.3082                 0.4048
 IR Inten    --      0.8650                 1.3933                 2.2685

                     10                     11                     12
                      A                      A                      A
 Frequencies --    487.8523               549.1955               648.6425
 Red. masses --      2.9486                 3.0181                 3.4204
 Frc consts  --      0.4135                 0.5363                 0.8479
 IR Inten    --      4.9642                 5.4734                 1.9751

                     13                     14                     15
                      A                      A                      A
 Frequencies --    755.2550               771.6730               828.9578
 Red. masses --      2.8888                 2.1210                 2.2522
 Frc consts  --      0.9708                 0.7441                 0.9119
 IR Inten    --      3.1974                 0.6330                 1.0309

                     16                     17                     18
                      A                      A                      A
 Frequencies --    897.0068               927.7864               956.9678
 Red. masses --      1.9810                 1.5882                 1.7902
 Frc consts  --      0.9391                 0.8055                 0.9659
 IR Inten    --      0.0747                 2.6877                 0.6812

                     19                     20                     21
                      A                      A                      A
 Frequencies --   1015.2512              1024.5782              1040.7520
 Red. masses --      1.7330                 1.2540                 1.3228
 Frc consts  --      1.0524                 0.7756                 0.8442
 IR Inten    --      2.3131                 1.5884                 2.0942

                     22                     23                     24
                      A                      A                      A
 Frequencies --   1090.7856              1124.7800              1167.6524
 Red. masses --      2.3642                 1.5656                 1.9819
 Frc consts  --      1.6573                 1.1670                 1.5920
 IR Inten    --      2.2901                12.3674                 3.7505

                     25                     26                     27
                      A                      A                      A
 Frequencies --   1170.2574              1216.2700              1238.0714
 Red. masses --      3.4218                 1.6499                 1.5455
 Frc consts  --      2.7610                 1.4380                 1.3957
 IR Inten    --     64.9726                 0.8406                 1.4543

                     28                     29                     30
                      A                      A                      A
 Frequencies --   1276.9294              1283.7324              1332.1808
 Red. masses --      1.6073                 1.5138                 1.4567
 Frc consts  --      1.5442                 1.4698                 1.5232
 IR Inten    --      2.9219                 4.9896                 5.9251

                     31                     32                     33
                      A                      A                      A
 Frequencies --   1350.0171              1396.5185              1398.7787
 Red. masses --      1.3766                 1.4082                 1.4164
 Frc consts  --      1.4782                 1.6181                 1.6329
 IR Inten    --      2.7628                 6.1421                 1.1121

                     34                     35                     36
                      A                      A                      A
 Frequencies --   1440.8496              1444.3281              1477.7483
 Red. masses --      1.2892                 1.2323                 1.0845
 Frc consts  --      1.5770                 1.5146                 1.3953
 IR Inten    --      3.2226                 5.3979                15.2271

                     37                     38                     39
                      A                      A                      A
 Frequencies --   1485.5166              1524.4591              1525.6313
 Red. masses --      1.0997                 1.0464                 1.0508
 Frc consts  --      1.4299                 1.4328                 1.4411
 IR Inten    --      1.3851                 5.1722                 3.2722

                     40                     41                     42
                      A                      A                      A
 Frequencies --   1532.5455              1540.9038              1844.6844
 Red. masses --      1.0439                 1.0487                12.5565
 Frc consts  --      1.4446                 1.4671                25.1747
 IR Inten    --      8.2685                 0.8626               227.3217

                     43                     44                     45
                      A                      A                      A
 Frequencies --   3010.3398              3036.0007              3038.3630
 Red. masses --      1.0836                 1.0691                 1.0660
 Frc consts  --      5.7859                 5.8060                 5.7982
 IR Inten    --     19.9608                12.6715                 7.1160

                     46                     47                     48
                      A                      A                      A
 Frequencies --   3043.0904              3047.5880              3056.8072
 Red. masses --      1.0365                 1.0405                 1.0842
 Frc consts  --      5.6552                 5.6938                 5.9691
 IR Inten    --     23.4874                22.8856                30.2875

                     49                     50                     51
                      A                      A                      A
 Frequencies --   3106.4346              3107.2235              3108.3175
 Red. masses --      1.1009                 1.0991                 1.0979
 Frc consts  --      6.2590                 6.2521                 6.2500
 IR Inten    --      0.8791                66.5764                 1.8213

                     52                     53                     54
                      A                      A                      A
 Frequencies --   3110.2136              3113.6154              3122.7524
 Red. masses --      1.0949                 1.1010                 1.1011
 Frc consts  --      6.2403                 6.2890                 6.3264
 IR Inten    --     14.4184                54.3790                25.9082

 - Thermochemistry -
 -------------------
 Temperature   298.150 Kelvin.  Pressure   1.00000 Atm.
 Atom     1 has atomic number  8 and mass  15.99491

 Molecular mass:   112.08882 amu.
 Principal axes and moments of inertia in atomic units:
                           1         2         3
     Eigenvalues --   574.042441088.934481402.66001
           X            0.99947   0.02834   0.01607
           Y           -0.02820   0.99956  -0.00871
           Z           -0.01631   0.00825   0.99983
 This molecule is an asymmetric top.
 Rotational symmetry number  1.
 Warning -- assumption of classical behavior for rotation
           may cause significant error
 Rotational temperatures (Kelvin)      0.15088     0.07954     0.06175
 Rotational constants (GHZ):           3.14392     1.65735     1.28666
 Zero-point vibrational energy     467997.4 (Joules/Mol)
                                  111.85406 (Kcal/Mol)
 Warning -- explicit consideration of  11 degrees of freedom as
           vibrations may cause significant error
 Vibrational temperatures:    108.15   198.46   330.67   348.15   413.39
          (Kelvin)            435.46   512.75   666.17   692.72   701.91
                              790.17   933.25  1086.64  1110.27  1192.69
                             1290.59  1334.88  1376.86  1460.72  1474.14
                             1497.41  1569.40  1618.31  1679.99  1683.74
                             1749.94  1781.31  1837.22  1847.00  1916.71
                             1942.37  2009.28  2012.53  2073.06  2078.07
                             2126.15  2137.33  2193.36  2195.04  2204.99
                             2217.02  2654.09  4331.21  4368.13  4371.53
                             4378.33  4384.80  4398.06  4469.47  4470.60
                             4472.18  4474.90  4479.80  4492.94

 Zero-point correction=                           0.178251 (Hartree/Particle)
 Thermal correction to Energy=                    0.186514
 Thermal correction to Enthalpy=                  0.187458
 Thermal correction to Gibbs Free Energy=         0.145760
 Sum of electronic and zero-point Energies=           -349.022018
 Sum of electronic and thermal Energies=              -349.013755
 Sum of electronic and thermal Enthalpies=            -349.012811
 Sum of electronic and thermal Free Energies=         -349.054508

                     E (Thermal)             CV                S
                      KCal/Mol        Cal/Mol-Kelvin    Cal/Mol-Kelvin
 Total                  117.039             31.583             87.760
 Electronic               0.000              0.000              0.000
 Translational            0.889              2.981             40.058
 Rotational               0.889              2.981             28.263
 Vibrational            115.262             25.621             19.439
 Vibration     1          0.599              1.966              4.013
 Vibration     2          0.614              1.915              2.832
 Vibration     3          0.652              1.795              1.880
 Vibration     4          0.658              1.776              1.788
 Vibration     5          0.684              1.697              1.490
 Vibration     6          0.694              1.669              1.402
 Vibration     7          0.732              1.562              1.138
 Vibration     8          0.821              1.332              0.757
 Vibration     9          0.838              1.291              0.706
 Vibration    10          0.844              1.277              0.689
 Vibration    11          0.904              1.141              0.546

 Normal termination of Gaussian 16 at Wed Feb 21 18:12:20 2024.
