 Gaussian 16, Revision A.03,
 Gaussian 16:  EM64M-G16RevA.03 25-Dec-2016

 ---------------------
 # freq b3lyp/6-31g(d)
 ---------------------

 ---------
 good luck
 ---------
 Symbolic Z-matrix:
 Charge =  0 Multiplicity = 1

                         Standard orientation:
 ---------------------------------------------------------------------
 Center     Atomic      Atomic             Coordinates (Angstroms)
 Number     Number       Type             X           Y           Z
 ---------------------------------------------------------------------
      1          8           0       -2.762812    2.169801    0.549391
      2          6           0       -1.791717    1.705405   -0.018047
      3          6           0       -0.599443    2.562891   -0.419376
      4          6           0        0.720078    1.955022    0.088754
      5          6           0        0.869667    0.474990   -0.336567
      6          6           0        2.174541   -0.050788    0.241088
      7          8           0        2.338363   -0.387402    1.395191
      8          8           0        3.161085   -0.056690   -0.683586
      9          6           0        4.448321   -0.486713   -0.207222
     10          6           0       -0.332196   -0.368893    0.142032
     11          6           0       -0.220928   -1.848988   -0.270190
     12          6           0       -1.430557   -2.671772    0.197658
     13          6           0       -2.751257   -2.069632   -0.301923
     14          6           0       -2.880388   -0.594145    0.098834
     15          6           0       -1.673179    0.225443   -0.376316
     16          1           0       -0.573022    2.620768   -1.517909
     17          1           0       -0.750096    3.575571   -0.034324
     18          1           0        0.753637    2.008211    1.184175
     19          1           0        1.568058    2.540315   -0.286013
     20          1           0        0.939043    0.426605   -1.430859
     21          1           0        5.114463   -0.423607   -1.068121
     22          1           0        4.395866   -1.513289    0.164889
     23          1           0        4.796939    0.164425    0.598822
     24          1           0       -0.340922   -0.324904    1.240879
     25          1           0       -0.139311   -1.909706   -1.366617
     26          1           0        0.700500   -2.276480    0.142737
     27          1           0       -1.329337   -3.709620   -0.143777
     28          1           0       -1.438851   -2.704007    1.296697
     29          1           0       -3.602045   -2.640504    0.090558
     30          1           0       -2.797673   -2.156184   -1.397978
     31          1           0       -3.800166   -0.157040   -0.304288
     32          1           0       -2.958236   -0.507994    1.190721
     33          1           0       -1.629593    0.184850   -1.479927
 ---------------------------------------------------------------------

 SCF Done:  E(RB3LYP) =  -693.816780605     A.U. after   14 cycles

 The electronic state is 1-A.
 Alpha  occ. eigenvalues --  -19.19852 -19.13950 -19.13676 -10.31630 -10.26992
 Alpha  occ. eigenvalues --  -10.24494 -10.20900 -10.20377 -10.20071 -10.19644
 Alpha  occ. eigenvalues --  -10.19565 -10.18429 -10.18097 -10.17987 -10.17781
 Alpha  occ. eigenvalues --   -1.10567  -1.03538  -1.01716  -0.85635  -0.81093
 Alpha  occ. eigenvalues --   -0.76749  -0.74621  -0.73939  -0.70641  -0.63085
 Alpha  occ. eigenvalues --   -0.62205  -0.60502  -0.56122  -0.55834  -0.53457
 Alpha  occ. eigenvalues --   -0.50926  -0.48729  -0.47904  -0.47294  -0.45984
 Alpha  occ. eigenvalues --   -0.45061  -0.44653  -0.44438  -0.42420  -0.42064
 Alpha  occ. eigenvalues --   -0.41029  -0.39760  -0.39203  -0.38140  -0.36834
 Alpha  occ. eigenvalues --   -0.36226  -0.35899  -0.35486  -0.34710  -0.33970
 Alpha  occ. eigenvalues --   -0.33477  -0.32176  -0.30700  -0.30605  -0.30108
 Alpha  occ. eigenvalues --   -0.27328  -0.23748
 Alpha virt. eigenvalues --   -0.01500   0.00604   0.08490   0.09208   0.09870
 Alpha virt. eigenvalues --    0.11056   0.12424   0.12818   0.13384   0.13897
 Alpha virt. eigenvalues --    0.14573   0.15321   0.15577   0.16052   0.16741

 Mulliken charges:
               1
     1  O   -0.448597
     2  C    0.450265
     3  C   -0.345012
     4  C   -0.289795
     5  C   -0.174578
     6  C    0.623009
     7  O   -0.489518
     8  O   -0.452593
     9  C   -0.220827
    10  C   -0.090595
    11  C   -0.275257
    12  C   -0.262768
    13  C   -0.265299
    14  C   -0.254228
    15  C   -0.185065
    16  H    0.155405
    17  H    0.167131
    18  H    0.167939
    19  H    0.153802
    20  H    0.143770
    21  H    0.165974
    22  H    0.171919
    23  H    0.171772
    24  H    0.150663
    25  H    0.125387
    26  H    0.148860
    27  H    0.133211
    28  H    0.137072
    29  H    0.135774
    30  H    0.125908
    31  H    0.147975
    32  H    0.143824
    33  H    0.134473
 Sum of Mulliken charges =  -0.00000

 Dipole moment (field-independent basis, Debye):
    X=              2.6039    Y=             -0.9187    Z=             -2.5360  Tot=              3.7491
 Quadrupole moment (field-independent basis, Debye-Ang):
   XX=            -89.2136   YY=            -90.2913   ZZ=            -92.9428
   XY=              6.9384   XZ=             -0.1219   YZ=             -1.5630

  Exact polarizability: 147.694  -1.530 128.362  -4.662  -0.362 104.126
 Approx polarizability: 186.208  -8.316 168.055 -11.253  -0.700 183.250

                      1                      2                      3
                      A                      A                      A
 Frequencies --     14.4019                57.5443                77.7615
 Red. masses --      5.2803                 5.1488                 3.3706
 Frc consts  --      0.0006                 0.0100                 0.0120
 IR Inten    --      1.2729                 1.4805                 1.2075

                      4                      5                      6
                      A                      A                      A
 Frequencies --    103.0535               132.5736               141.9018
 Red. masses --      2.8930                 1.2741                 2.5131
 Frc consts  --      0.0181                 0.0132                 0.0298
 IR Inten    --      0.2297                 0.6514                 1.1189

                      7                      8                      9
                      A                      A                      A
 Frequencies --    165.2334               199.7713               240.1333
 Red. masses --      2.7761                 4.5319                 2.4777
 Frc consts  --      0.0447                 0.1066                 0.0842
 IR Inten    --      1.7355                 1.7932                 1.9741

                     10                     11                     12
                      A                      A                      A
 Frequencies --    259.3037               272.8456               304.6633
 Red. masses --      4.9775                 3.5721                 2.2001
 Frc consts  --      0.1972                 0.1567                 0.1203
 IR Inten    --      2.3741                 9.1705                 6.4603

                     13                     14                     15
                      A                      A                      A
 Frequencies --    325.6148               360.6868               382.9134
 Red. masses --      3.0476                 3.0730                 4.4048
 Frc consts  --      0.1904                 0.2355                 0.3805
 IR Inten    --      2.5128                12.4684                 1.0618

                     16                     17                     18
                      A                      A                      A
 Frequencies --    399.0167               443.0954               468.1936
 Red. masses --      3.8869                 2.6441                 2.5964
 Frc consts  --      0.3646                 0.3059                 0.3353
 IR Inten    --      0.5804                 0.4086                 1.3416

                     19                     20                     21
                      A                      A                      A
 Frequencies --    505.2272               556.6526               576.3979
 Red. masses --      2.2611                 2.2230                 3.3589
 Frc consts  --      0.3400                 0.4058                 0.6575
 IR Inten    --      0.4644                 1.3834                 6.2142

                     22                     23                     24
                      A                      A                      A
 Frequencies --    664.0750               740.1569               766.5391
 Red. masses --      4.9615                 5.0186                 4.4476
 Frc consts  --      1.2891                 1.6199                 1.5397
 IR Inten    --      3.7077                 9.3836                 5.7342

                     25                     26                     27
                      A                      A                      A
 Frequencies --    792.5821               827.6517               846.8927
 Red. masses --      2.0351                 2.0646                 2.6297
 Frc consts  --      0.7532                 0.8333                 1.1112
 IR Inten    --      1.0893                 4.1006                 8.7367

                     28                     29                     30
                      A                      A                      A
 Frequencies --    859.2869               870.5950               906.4272
 Red. masses --      1.7364                 1.9605                 2.8787
 Frc consts  --      0.7554                 0.8755                 1.3935
 IR Inten    --      0.8850                 0.8273                 6.4165

                     31                     32                     33
                      A                      A                      A
 Frequencies --    920.2356               941.5218               976.7020
 Red. masses --      1.6746                 2.9810                 2.4478
 Frc consts  --      0.8355                 1.5569                 1.3758
 IR Inten    --      3.6638                 2.8258                 2.0055

                     34                     35                     36
                      A                      A                      A
 Frequencies --    997.4639              1013.5170              1030.1323
 Red. masses --      2.2249                 2.0326                 2.5149
 Frc consts  --      1.3042                 1.2302                 1.5724
 IR Inten    --      5.1381                 0.3045                19.5828

                     37                     38                     39
                      A                      A                      A
 Frequencies --   1049.6414              1074.5188              1080.7762
 Red. masses --      2.4081                 1.4642                 1.6013
 Frc consts  --      1.5632                 0.9961                 1.1020
 IR Inten    --      3.0424                 0.8145                 1.6040

                     40                     41                     42
                      A                      A                      A
 Frequencies --   1095.3918              1112.4452              1126.6493
 Red. masses --      2.8575                 2.8418                 1.7532
 Frc consts  --      2.0201                 2.0720                 1.3111
 IR Inten    --      4.5870                 6.7671                21.0711

                     43                     44                     45
                      A                      A                      A
 Frequencies --   1151.5741              1164.7012              1184.6623
 Red. masses --      2.0004                 1.8797                 1.2784
 Frc consts  --      1.5630                 1.5023                 1.0571
 IR Inten    --     18.9969                 3.4712                 0.8104

                     46                     47                     48
                      A                      A                      A
 Frequencies --   1197.4838              1213.3671              1222.1817
 Red. masses --      2.0467                 1.8406                 1.5517
 Frc consts  --      1.7292                 1.5966                 1.3656
 IR Inten    --    192.6308                24.0292                53.1797

                     49                     50                     51
                      A                      A                      A
 Frequencies --   1244.0672              1256.7548              1283.7907
 Red. masses --      1.5195                 1.4498                 1.4665
 Frc consts  --      1.3856                 1.3491                 1.4240
 IR Inten    --     15.8453                85.5719                16.5654

                     52                     53                     54
                      A                      A                      A
 Frequencies --   1284.1044              1318.0917              1327.6884
 Red. masses --      1.4110                 1.2765                 1.2836
 Frc consts  --      1.3708                 1.3066                 1.3331
 IR Inten    --      1.9386                 0.8750                 5.3491

                     55                     56                     57
                      A                      A                      A
 Frequencies --   1341.8420              1350.3928              1366.1643
 Red. masses --      1.3784                 1.4376                 1.3517
 Frc consts  --      1.4623                 1.5445                 1.4864
 IR Inten    --     10.8783                58.2488                26.9967

                     58                     59                     60
                      A                      A                      A
 Frequencies --   1378.3483              1382.9662              1392.0042
 Red. masses --      1.3994                 1.3501                 1.3877
 Frc consts  --      1.5665                 1.5214                 1.5842
 IR Inten    --      5.5027                 2.8799                11.6655

                     61                     62                     63
                      A                      A                      A
 Frequencies --   1392.7996              1403.0384              1411.9731
 Red. masses --      1.4685                 1.5082                 1.7004
 Frc consts  --      1.6784                 1.7492                 1.9973
 IR Inten    --      6.9258                16.7760                20.4546

                     64                     65                     66
                      A                      A                      A
 Frequencies --   1416.4462              1492.0199              1497.8955
 Red. masses --      1.5612                 1.2201                 1.0904
 Frc consts  --      1.8455                 1.6003                 1.4415
 IR Inten    --     26.3358                12.0224                 6.4811

                     67                     68                     69
                      A                      A                      A
 Frequencies --   1511.4278              1512.6594              1515.0369
 Red. masses --      1.0887                 1.0484                 1.0951
 Frc consts  --      1.4654                 1.4133                 1.4809
 IR Inten    --      2.1632                 6.1640                 2.4406

                     70                     71                     72
                      A                      A                      A
 Frequencies --   1518.2423              1524.1646              1528.6286
 Red. masses --      1.0804                 1.0478                 1.0881
 Frc consts  --      1.4673                 1.4341                 1.4980
 IR Inten    --      7.1890                 9.1571                 3.4585

                     73                     74                     75
                      A                      A                      A
 Frequencies --   1531.5451              1811.1058              1816.1799
 Red. masses --      1.1000                11.4331                10.9377
 Frc consts  --      1.5202                22.0954                21.2566
 IR Inten    --      0.3658               143.0340               192.2762

                     76                     77                     78
                      A                      A                      A
 Frequencies --   2967.7555              3012.7080              3019.8115
 Red. masses --      1.0799                 1.0694                 1.0696
 Frc consts  --      5.6040                 5.7188                 5.7469
 IR Inten    --     10.6310                12.2418                25.6799

                     79                     80                     81
                      A                      A                      A
 Frequencies --   3028.6117              3029.4598              3033.4469
 Red. masses --      1.0690                 1.0693                 1.0735
 Frc consts  --      5.7772                 5.7823                 5.8202
 IR Inten    --     16.1349                 7.6411                22.9662

                     82                     83                     84
                      A                      A                      A
 Frequencies --   3050.1786              3050.5817              3058.2309
 Red. masses --      1.0672                 1.0654                 1.0780
 Frc consts  --      5.8500                 5.8417                 5.9405
 IR Inten    --     12.5501                14.2629                24.9913

                     85                     86                     87
                      A                      A                      A
 Frequencies --   3073.8333              3075.4639              3077.0942
 Red. masses --      1.0930                 1.0300                 1.0982
 Frc consts  --      6.0843                 5.7397                 6.1264
 IR Inten    --     63.7533                31.5727                59.1213

                     88                     89                     90
                      A                      A                      A
 Frequencies --   3083.9554              3095.3882              3099.9854
 Red. masses --      1.0972                 1.1040                 1.0998
 Frc consts  --      6.1481                 6.2324                 6.2271
 IR Inten    --     38.6355                27.9116                34.5111

                     91                     92                     93
                      A                      A                      A
 Frequencies --   3119.7706              3150.3112              3182.1898
 Red. masses --      1.0955                 1.1075                 1.1072
 Frc consts  --      6.2821                 6.4761                 6.6061
 IR Inten    --     18.6855                19.7937                17.3803

 - Thermochemistry -
 -------------------
 Temperature   298.150 Kelvin.  Pressure   1.00000 Atm.
 Atom     1 has atomic number  8 and mass  15.99491

 Molecular mass:   210.12559 amu.
 Principal axes and moments of inertia in atomic units:
                           1         2         3
     Eigenvalues --  2046.281614174.820375714.28877
           X            0.99952   0.03102  -0.00011
           Y           -0.03102   0.99951  -0.00415
           Z           -0.00002   0.00415   0.99999
 This molecule is an asymmetric top.
 Rotational symmetry number  1.
 Warning -- assumption of classical behavior for rotation
           may cause significant error
 Rotational temperatures (Kelvin)      0.04233     0.02075     0.01516
 Rotational constants (GHZ):           0.88196     0.43229     0.31583
 Zero-point vibrational energy     758625.7 (Joules/Mol)
                                  181.31589 (Kcal/Mol)
 Warning -- explicit consideration of  21 degrees of freedom as
           vibrations may cause significant error
 Vibrational temperatures:     20.72    82.79   111.88   148.27   190.74
          (Kelvin)            204.17   237.73   287.43   345.50   373.08
                              392.56   438.34   468.49   518.95   550.93
                              574.10   637.52   673.63   726.91   800.90
                              829.31   955.46  1064.92  1102.88  1140.35
                             1190.81  1218.49  1236.32  1252.59  1304.15
                             1324.01  1354.64  1405.26  1435.13  1458.22
                             1482.13  1510.20  1545.99  1555.00  1576.02
                             1600.56  1621.00  1656.86  1675.75  1704.46
                             1722.91  1745.76  1758.45  1789.94  1808.19
                             1847.09  1847.54  1896.44  1910.25  1930.61
                             1942.91  1965.61  1983.14  1989.78  2002.78
                             2003.93  2018.66  2031.51  2037.95  2146.68
                             2155.14  2174.61  2176.38  2179.80  2184.41
                             2192.93  2199.36  2203.55  2605.78  2613.08
                             4269.94  4334.61  4344.84  4357.50  4358.72
                             4364.45  4388.53  4389.11  4400.11  4422.56
                             4424.91  4427.25  4437.12  4453.57  4460.19
                             4488.65  4532.60  4578.46

 Zero-point correction=                           0.288945 (Hartree/Particle)
 Thermal correction to Energy=                    0.303249
 Thermal correction to Enthalpy=                  0.304193
 Thermal correction to Gibbs Free Energy=         0.246536
 Sum of electronic and zero-point Energies=           -693.527835
 Sum of electronic and thermal Energies=              -693.513532
 Sum of electronic and thermal Enthalpies=            -693.512588
 Sum of electronic and thermal Free Energies=         -693.570244

                     E (Thermal)             CV                S
                      KCal/Mol        Cal/Mol-Kelvin    Cal/Mol-Kelvin
 Total                  190.292             54.575            121.349
 Electronic               0.000              0.000              0.000
 Translational            0.889              2.981             41.931
 Rotational               0.889              2.981             32.257
 Vibrational            188.514             48.613             47.161
 Vibration     1          0.593              1.986              7.286
 Vibration     2          0.596              1.974              4.540
 Vibration     3          0.599              1.964              3.947
 Vibration     4          0.605              1.947              3.396
 Vibration     5          0.613              1.921              2.908
 Vibration     6          0.615              1.911              2.778
 Vibration     7          0.624              1.885              2.489
 Vibration     8          0.638              1.840              2.135
 Vibration     9          0.657              1.779              1.802
 Vibration    10          0.668              1.747              1.666
 Vibration    11          0.676              1.723              1.578
 Vibration    12          0.696              1.665              1.391
 Vibration    13          0.710              1.624              1.282
 Vibration    14          0.735              1.553              1.119
 Vibration    15          0.752              1.507              1.028
 Vibration    16          0.765              1.472              0.966
 Vibration    17          0.803              1.376              0.817
 Vibration    18          0.825              1.321              0.743
 Vibration    19          0.860              1.238              0.645
 Vibration    20          0.912              1.125              0.531
 Vibration    21          0.933              1.082              0.492

 Normal termination of Gaussian 16 at Sat Feb 24 00:41:43 2024.
