 Gaussian 16, Revision A.03,
 Gaussian 16:  EM64M-G16RevA.03 25-Dec-2016

 ---------------------
 # freq b3lyp/6-31g(d)
 ---------------------

 ---------
 good luck
 ---------
 Symbolic Z-matrix:
 Charge =  0 Multiplicity = 1

                         Standard orientation:
 ---------------------------------------------------------------------
 Center     Atomic      Atomic             Coordinates (Angstroms)
 Number     Number       Type             X           Y           Z
 ---------------------------------------------------------------------
      1          8           0       -2.632506    2.093432    0.875660
      2          6           0       -1.760889    1.678704    0.134659
      3          6           0       -0.674099    2.583814   -0.428224
      4          6           0        0.726812    2.002300   -0.161180
      5          6           0        0.837801    0.544702   -0.660065
      6          6           0        2.242761    0.009079   -0.428649
      7          8           0        3.023521   -0.307481   -1.299654
      8          8           0        2.535471   -0.063823    0.892203
      9          6           0        3.852626   -0.545300    1.207094
     10          6           0       -0.244882   -0.351356   -0.009270
     11          6           0       -0.160939   -1.817871   -0.472452
     12          6           0       -1.258713   -2.687342    0.158275
     13          6           0       -2.657089   -2.114956   -0.112856
     14          6           0       -2.761646   -0.654326    0.345157
     15          6           0       -1.667432    0.214016   -0.289831
     16          1           0       -0.786439    3.580196    0.008745
     17          1           0       -0.828937    2.672463   -1.513949
     18          1           0        1.485170    2.626154   -0.649230
     19          1           0        0.937232    2.027899    0.914442
     20          1           0        0.703268    0.527833   -1.748947
     21          1           0        4.613723    0.109406    0.774663
     22          1           0        3.914036   -0.539128    2.295674
     23          1           0        3.994573   -1.557310    0.818987
     24          1           0       -0.084033   -0.327974    1.078722
     25          1           0       -0.250188   -1.851256   -1.568746
     26          1           0        0.826597   -2.229970   -0.229330
     27          1           0       -1.094593   -2.743721    1.244325
     28          1           0       -1.184415   -3.713792   -0.222010
     29          1           0       -2.871121   -2.176900   -1.190351
     30          1           0       -3.420268   -2.721429    0.390563
     31          1           0       -3.745084   -0.236883    0.103914
     32          1           0       -2.669383   -0.596639    1.437802
     33          1           0       -1.797902    0.205239   -1.386893
 ---------------------------------------------------------------------

 SCF Done:  E(RB3LYP) =  -693.815897539     A.U. after   14 cycles

 The electronic state is 1-A.
 Alpha  occ. eigenvalues --  -19.19728 -19.13874 -19.13801 -10.31547 -10.27110
 Alpha  occ. eigenvalues --  -10.24490 -10.20902 -10.20470 -10.20309 -10.19816
 Alpha  occ. eigenvalues --  -10.19597 -10.18711 -10.18365 -10.18181 -10.17977
 Alpha  occ. eigenvalues --   -1.10472  -1.03663  -1.01607  -0.85842  -0.81217
 Alpha  occ. eigenvalues --   -0.76906  -0.74804  -0.73770  -0.70642  -0.63272
 Alpha  occ. eigenvalues --   -0.62355  -0.60634  -0.56885  -0.56056  -0.53431
 Alpha  occ. eigenvalues --   -0.50588  -0.48854  -0.47681  -0.47278  -0.46041
 Alpha  occ. eigenvalues --   -0.45205  -0.44666  -0.44485  -0.42387  -0.41861
 Alpha  occ. eigenvalues --   -0.41325  -0.39995  -0.39427  -0.37823  -0.37035
 Alpha  occ. eigenvalues --   -0.36547  -0.35964  -0.35619  -0.34994  -0.34339
 Alpha  occ. eigenvalues --   -0.33553  -0.32385  -0.31038  -0.30529  -0.30506
 Alpha  occ. eigenvalues --   -0.26845  -0.23877
 Alpha virt. eigenvalues --   -0.01614   0.00658   0.08176   0.08738   0.09784
 Alpha virt. eigenvalues --    0.10900   0.11679   0.13231   0.13405   0.14333
 Alpha virt. eigenvalues --    0.14926   0.15190   0.15352   0.15810   0.16883

 Mulliken charges:
               1
     1  O   -0.448603
     2  C    0.448867
     3  C   -0.345444
     4  C   -0.290336
     5  C   -0.170645
     6  C    0.614330
     7  O   -0.482607
     8  O   -0.452829
     9  C   -0.219454
    10  C   -0.100516
    11  C   -0.271904
    12  C   -0.262394
    13  C   -0.265534
    14  C   -0.254593
    15  C   -0.182461
    16  H    0.166484
    17  H    0.156724
    18  H    0.154324
    19  H    0.165721
    20  H    0.149985
    21  H    0.171642
    22  H    0.165607
    23  H    0.171038
    24  H    0.144435
    25  H    0.134346
    26  H    0.143295
    27  H    0.132589
    28  H    0.135397
    29  H    0.128005
    30  H    0.136143
    31  H    0.148847
    32  H    0.142757
    33  H    0.136781
 Sum of Mulliken charges =  -0.00000

 Dipole moment (field-independent basis, Debye):
    X=              1.3591    Y=             -0.9437    Z=              0.1968  Tot=              1.6663
 Quadrupole moment (field-independent basis, Debye-Ang):
   XX=            -95.5498   YY=            -89.4830   ZZ=            -91.6317
   XY=              6.5869   XZ=             12.9726   YZ=             -5.5065

  Exact polarizability: 141.434  -1.781 128.243  -2.942   0.319 109.256
 Approx polarizability: 183.782  -9.140 166.990 -13.825   6.556 186.924

                      1                      2                      3
                      A                      A                      A
 Frequencies --     31.4535                55.6324                77.2287
 Red. masses --      6.1566                 5.3245                 3.2413
 Frc consts  --      0.0036                 0.0097                 0.0114
 IR Inten    --      1.6757                 2.5773                 0.3643

                      4                      5                      6
                      A                      A                      A
 Frequencies --     86.7990               131.7013               143.9365
 Red. masses --      3.3072                 1.1233                 2.7846
 Frc consts  --      0.0147                 0.0115                 0.0340
 IR Inten    --      0.5040                 0.2609                 1.6973

                      7                      8                      9
                      A                      A                      A
 Frequencies --    162.1248               196.6862               222.2191
 Red. masses --      2.7958                 4.4095                 2.9629
 Frc consts  --      0.0433                 0.1005                 0.0862
 IR Inten    --      0.9862                 1.9802                 2.5137

                     10                     11                     12
                      A                      A                      A
 Frequencies --    268.9506               287.2346               306.8161
 Red. masses --      3.6506                 2.7479                 2.6164
 Frc consts  --      0.1556                 0.1336                 0.1451
 IR Inten    --      8.2985                 1.3075                 7.2846

                     13                     14                     15
                      A                      A                      A
 Frequencies --    327.1345               359.4202               384.3720
 Red. masses --      3.1473                 2.7791                 4.3798
 Frc consts  --      0.1984                 0.2115                 0.3812
 IR Inten    --      1.4705                 3.9391                 1.1112

                     16                     17                     18
                      A                      A                      A
 Frequencies --    403.2268               440.2497               472.0873
 Red. masses --      4.3423                 2.7512                 2.4835
 Frc consts  --      0.4160                 0.3142                 0.3261
 IR Inten    --      0.9802                 1.5955                 2.3110

                     19                     20                     21
                      A                      A                      A
 Frequencies --    509.8239               553.6667               576.2134
 Red. masses --      2.2880                 2.3464                 3.5235
 Frc consts  --      0.3504                 0.4238                 0.6893
 IR Inten    --      2.2502                 2.9790                 6.6958

                     22                     23                     24
                      A                      A                      A
 Frequencies --    663.7876               750.4249               751.9918
 Red. masses --      4.9905                 3.6398                 4.9679
 Frc consts  --      1.2955                 1.2077                 1.6552
 IR Inten    --      4.2396                 4.7756                 5.9549

                     25                     26                     27
                      A                      A                      A
 Frequencies --    792.8193               827.7095               842.6540
 Red. masses --      2.1054                 2.0985                 2.5650
 Frc consts  --      0.7797                 0.8471                 1.0731
 IR Inten    --      1.4179                 3.7022                13.6569

                     28                     29                     30
                      A                      A                      A
 Frequencies --    852.4505               860.0890               894.5648
 Red. masses --      3.4552                 1.6607                 2.1188
 Frc consts  --      1.4793                 0.7238                 0.9990
 IR Inten    --      3.4860                 0.5993                 5.1599

                     31                     32                     33
                      A                      A                      A
 Frequencies --    915.3703               935.2761               971.2620
 Red. masses --      1.6590                 2.4714                 2.2411
 Frc consts  --      0.8190                 1.2737                 1.2456
 IR Inten    --      4.0075                 2.1203                 0.4948

                     34                     35                     36
                      A                      A                      A
 Frequencies --    993.5870              1017.6593              1044.0596
 Red. masses --      2.0871                 2.0327                 1.9423
 Frc consts  --      1.2140                 1.2403                 1.2475
 IR Inten    --      3.3596                 1.9253                 3.9623

                     37                     38                     39
                      A                      A                      A
 Frequencies --   1055.1063              1074.1726              1078.8222
 Red. masses --      3.3073                 1.9320                 1.5560
 Frc consts  --      2.1693                 1.3134                 1.0670
 IR Inten    --     29.1889                18.3418                 1.8956

                     40                     41                     42
                      A                      A                      A
 Frequencies --   1091.8839              1110.6559              1127.0034
 Red. masses --      2.6599                 2.9069                 1.8664
 Frc consts  --      1.8684                 2.1127                 1.3967
 IR Inten    --      5.4511                 6.5141                35.3014

                     43                     44                     45
                      A                      A                      A
 Frequencies --   1149.6397              1166.4150              1185.1344
 Red. masses --      1.9576                 1.8943                 1.2766
 Frc consts  --      1.5244                 1.5184                 1.0565
 IR Inten    --     17.9139                 2.0823                 1.3197

                     46                     47                     48
                      A                      A                      A
 Frequencies --   1212.7591              1217.6755              1230.8384
 Red. masses --      1.7936                 1.4713                 1.4652
 Frc consts  --      1.5543                 1.2853                 1.3078
 IR Inten    --     25.6664                 7.5711                40.8692

                     49                     50                     51
                      A                      A                      A
 Frequencies --   1248.2022              1279.1124              1281.6850
 Red. masses --      1.5142                 1.5724                 1.4726
 Frc consts  --      1.3900                 1.5157                 1.4253
 IR Inten    --     29.6357                32.2473                28.3914

                     52                     53                     54
                      A                      A                      A
 Frequencies --   1294.8970              1316.3009              1324.1250
 Red. masses --      2.7999                 1.2430                 1.2946
 Frc consts  --      2.7661                 1.2689                 1.3373
 IR Inten    --    211.0244                 0.7513                12.8223

                     55                     56                     57
                      A                      A                      A
 Frequencies --   1332.2871              1342.6056              1362.5302
 Red. masses --      1.3074                 1.3730                 1.3054
 Frc consts  --      1.3673                 1.4582                 1.4279
 IR Inten    --      2.4660                12.4616                 3.9830

                     58                     59                     60
                      A                      A                      A
 Frequencies --   1380.1555              1382.7113              1389.1854
 Red. masses --      1.3757                 1.2951                 1.3946
 Frc consts  --      1.5439                 1.4589                 1.5856
 IR Inten    --      3.0427                 0.9468                 2.1620

                     61                     62                     63
                      A                      A                      A
 Frequencies --   1393.6267              1401.4818              1408.5169
 Red. masses --      1.4121                 1.4876                 1.5338
 Frc consts  --      1.6158                 1.7215                 1.7928
 IR Inten    --      2.8981                 2.8315                 7.8000

                     64                     65                     66
                      A                      A                      A
 Frequencies --   1413.4942              1492.1372              1498.5180
 Red. masses --      1.6522                 1.1989                 1.0903
 Frc consts  --      1.9449                 1.5728                 1.4425
 IR Inten    --      3.2625                 6.3397                 7.9902

                     67                     68                     69
                      A                      A                      A
 Frequencies --   1510.1630              1512.8987              1513.7166
 Red. masses --      1.0912                 1.0489                 1.0924
 Frc consts  --      1.4662                 1.4146                 1.4747
 IR Inten    --      0.8396                 6.3974                 3.4015

                     70                     71                     72
                      A                      A                      A
 Frequencies --   1518.0871              1524.6827              1529.2242
 Red. masses --      1.0820                 1.0484                 1.0875
 Frc consts  --      1.4691                 1.4359                 1.4984
 IR Inten    --      6.8339                 7.8447                 4.2191

                     73                     74                     75
                      A                      A                      A
 Frequencies --   1530.9322              1811.1731              1823.6104
 Red. masses --      1.0995                11.5414                11.0013
 Frc consts  --      1.5182                22.3064                21.5555
 IR Inten    --      0.5108               204.3021               187.9618

                     76                     77                     78
                      A                      A                      A
 Frequencies --   2972.5555              3018.5477              3021.2047
 Red. masses --      1.0800                 1.0709                 1.0708
 Frc consts  --      5.6226                 5.7489                 5.7586
 IR Inten    --      9.5479                 9.4788                18.5034

                     79                     80                     81
                      A                      A                      A
 Frequencies --   3026.4803              3029.7875              3030.7766
 Red. masses --      1.0708                 1.0682                 1.0684
 Frc consts  --      5.7790                 5.7773                 5.7823
 IR Inten    --     11.6887                 3.5445                40.3166

                     82                     83                     84
                      A                      A                      A
 Frequencies --   3050.2773              3055.3164              3061.3700
 Red. masses --      1.0667                 1.0633                 1.0820
 Frc consts  --      5.8473                 5.8484                 5.9748
 IR Inten    --     13.3634                20.1065                16.5179

                     85                     86                     87
                      A                      A                      A
 Frequencies --   3072.9218              3074.7308              3075.9756
 Red. masses --      1.0958                 1.0918                 1.0312
 Frc consts  --      6.0967                 6.0815                 5.7486
 IR Inten    --     55.0154                61.1180                27.3474

                     88                     89                     90
                      A                      A                      A
 Frequencies --   3079.4270              3099.2911              3100.0186
 Red. masses --      1.1013                 1.1019                 1.1008
 Frc consts  --      6.1532                 6.2362                 6.2331
 IR Inten    --     60.5825                15.4191                44.3749

                     91                     92                     93
                      A                      A                      A
 Frequencies --   3120.7886              3150.8130              3182.2164
 Red. masses --      1.0958                 1.1075                 1.1072
 Frc consts  --      6.2877                 6.4782                 6.6062
 IR Inten    --     19.0128                19.9926                15.4397

 - Thermochemistry -
 -------------------
 Temperature   298.150 Kelvin.  Pressure   1.00000 Atm.
 Atom     1 has atomic number  8 and mass  15.99491

 Molecular mass:   210.12559 amu.
 Principal axes and moments of inertia in atomic units:
                           1         2         3
     Eigenvalues --  2190.299573932.739485344.06168
           X            0.99924   0.03520   0.01666
           Y           -0.03495   0.99927  -0.01531
           Z           -0.01718   0.01471   0.99974
 This molecule is an asymmetric top.
 Rotational symmetry number  1.
 Warning -- assumption of classical behavior for rotation
           may cause significant error
 Rotational temperatures (Kelvin)      0.03954     0.02202     0.01621
 Rotational constants (GHZ):           0.82397     0.45890     0.33771
 Zero-point vibrational energy     758727.6 (Joules/Mol)
                                  181.34025 (Kcal/Mol)
 Warning -- explicit consideration of  21 degrees of freedom as
           vibrations may cause significant error
 Vibrational temperatures:     45.25    80.04   111.11   124.88   189.49
          (Kelvin)            207.09   233.26   282.99   319.72   386.96
                              413.27   441.44   470.67   517.13   553.03
                              580.15   633.42   679.23   733.52   796.60
                              829.04   955.04  1079.69  1081.95  1140.69
                             1190.89  1212.39  1226.49  1237.48  1287.08
                             1317.01  1345.65  1397.43  1429.55  1464.18
                             1502.17  1518.06  1545.49  1552.18  1570.98
                             1597.99  1621.51  1654.08  1678.21  1705.14
                             1744.89  1751.96  1770.90  1795.88  1840.36
                             1844.06  1863.07  1893.86  1905.12  1916.86
                             1931.71  1960.38  1985.74  1989.41  1998.73
                             2005.12  2016.42  2026.54  2033.70  2146.85
                             2156.03  2172.79  2176.72  2177.90  2184.19
                             2193.68  2200.21  2202.67  2605.87  2623.77
                             4276.84  4343.02  4346.84  4354.43  4359.19
                             4360.61  4388.67  4395.92  4404.63  4421.25
                             4423.85  4425.64  4430.61  4459.19  4460.24
                             4490.12  4533.32  4578.50

 Zero-point correction=                           0.288984 (Hartree/Particle)
 Thermal correction to Energy=                    0.303286
 Thermal correction to Enthalpy=                  0.304230
 Thermal correction to Gibbs Free Energy=         0.247132
 Sum of electronic and zero-point Energies=           -693.526913
 Sum of electronic and thermal Energies=              -693.512611
 Sum of electronic and thermal Enthalpies=            -693.511667
 Sum of electronic and thermal Free Energies=         -693.568765

                     E (Thermal)             CV                S
                      KCal/Mol        Cal/Mol-Kelvin    Cal/Mol-Kelvin
 Total                  190.315             54.595            120.173
 Electronic               0.000              0.000              0.000
 Translational            0.889              2.981             41.931
 Rotational               0.889              2.981             32.198
 Vibrational            188.537             48.633             46.043
 Vibration     1          0.594              1.983              5.736
 Vibration     2          0.596              1.975              4.606
 Vibration     3          0.599              1.964              3.960
 Vibration     4          0.601              1.958              3.731
 Vibration     5          0.612              1.922              2.921
 Vibration     6          0.616              1.909              2.751
 Vibration     7          0.622              1.889              2.525
 Vibration     8          0.636              1.845              2.164
 Vibration     9          0.648              1.807              1.941
 Vibration    10          0.673              1.730              1.603
 Vibration    11          0.684              1.697              1.490
 Vibration    12          0.697              1.661              1.379
 Vibration    13          0.711              1.621              1.274
 Vibration    14          0.734              1.556              1.125
 Vibration    15          0.753              1.504              1.022
 Vibration    16          0.769              1.463              0.951
 Vibration    17          0.800              1.382              0.826
 Vibration    18          0.829              1.312              0.732
 Vibration    19          0.865              1.228              0.634
 Vibration    20          0.909              1.132              0.537
 Vibration    21          0.933              1.083              0.492

 Normal termination of Gaussian 16 at Sat Feb 24 00:37:15 2024.
