 Gaussian 16, Revision A.03,
 Gaussian 16:  EM64M-G16RevA.03 25-Dec-2016

 ---------------------
 # freq b3lyp/6-31g(d)
 ---------------------

 ---------
 good luck
 ---------
 Symbolic Z-matrix:
 Charge =  0 Multiplicity = 1

                         Standard orientation:
 ---------------------------------------------------------------------
 Center     Atomic      Atomic             Coordinates (Angstroms)
 Number     Number       Type             X           Y           Z
 ---------------------------------------------------------------------
      1          8           0       -3.907035   -1.512167   -1.400807
      2          6           0       -3.130643   -0.822694   -0.768709
      3          6           0       -2.627931   -1.170200    0.628830
      4          6           0       -1.083817   -1.278069    0.586999
      5          6           0       -3.044955   -0.034152    1.594141
      6          6           0       -2.431832    1.294376    1.113568
      7          6           0       -2.955334    1.619467   -0.299402
      8          6           0       -2.547413    0.490460   -1.278480
      9          6           0       -1.004695    0.362918   -1.308632
     10          6           0       -0.441678    0.049093    0.109108
     11          6           0        1.088894   -0.018398    0.057586
     12          6           0        1.825577    1.107921   -0.353754
     13          6           0        3.212991    1.093271   -0.415266
     14          6           0        3.918173   -0.068970   -0.060914
     15          6           0        5.350159   -0.094802   -0.120230
     16          7           0        6.512474   -0.114603   -0.168186
     17          6           0        3.203428   -1.201800    0.351382
     18          6           0        1.811715   -1.169003    0.407230
     19          6           0       -0.894903    1.176362    1.083029
     20          1           0       -3.068828   -2.125882    0.929029
     21          1           0       -0.722070   -1.534757    1.591535
     22          1           0       -0.794809   -2.100418   -0.079972
     23          1           0       -2.699015   -0.272555    2.608970
     24          1           0       -4.139057    0.041362    1.637467
     25          1           0       -2.716147    2.099746    1.802829
     26          1           0       -2.541657    2.574062   -0.652092
     27          1           0       -4.047232    1.729486   -0.285946
     28          1           0       -2.937047    0.678579   -2.283919
     29          1           0       -0.702720   -0.428492   -2.006523
     30          1           0       -0.578793    1.298928   -1.690297
     31          1           0        1.307920    2.020427   -0.633549
     32          1           0        3.757784    1.975429   -0.736241
     33          1           0        3.739538   -2.104452    0.626799
     34          1           0        1.293435   -2.064099    0.730431
     35          1           0       -0.510080    0.962216    2.088969
     36          1           0       -0.458682    2.135303    0.777367
 ---------------------------------------------------------------------

 SCF Done:  E(RB3LYP) =  -788.026818439     A.U. after   15 cycles

 The electronic state is 1-A.
 Alpha  occ. eigenvalues --  -19.14084 -14.33527 -10.27189 -10.24049 -10.22850
 Alpha  occ. eigenvalues --  -10.22452 -10.22379 -10.22100 -10.22076 -10.21344
 Alpha  occ. eigenvalues --  -10.21267 -10.20601 -10.20503 -10.20501 -10.20396
 Alpha  occ. eigenvalues --  -10.20356 -10.20117 -10.20073 -10.20004  -1.03923
 Alpha  occ. eigenvalues --   -0.90736  -0.89436  -0.87481  -0.81348  -0.79197
 Alpha  occ. eigenvalues --   -0.77906  -0.77146  -0.75861  -0.69081  -0.66556
 Alpha  occ. eigenvalues --   -0.65353  -0.63431  -0.60960  -0.59411  -0.58238
 Alpha  occ. eigenvalues --   -0.56822  -0.52280  -0.49395  -0.48627  -0.47384
 Alpha  occ. eigenvalues --   -0.46822  -0.46221  -0.45316  -0.44901  -0.44452
 Alpha  occ. eigenvalues --   -0.43992  -0.43077  -0.42023  -0.41184  -0.41035
 Alpha  occ. eigenvalues --   -0.40167  -0.38672  -0.37888  -0.37605  -0.37030
 Alpha  occ. eigenvalues --   -0.35793  -0.35728  -0.34925  -0.34612  -0.33947
 Alpha  occ. eigenvalues --   -0.32958  -0.31489  -0.31298  -0.30714  -0.27638
 Alpha  occ. eigenvalues --   -0.26009  -0.23838
 Alpha virt. eigenvalues --   -0.05247  -0.02678  -0.01707   0.03641   0.05614
 Alpha virt. eigenvalues --    0.07255   0.07840   0.09727   0.10671   0.11608
 Alpha virt. eigenvalues --    0.11924   0.12206   0.13242   0.13526   0.14354

 Mulliken charges:
               1
     1  O   -0.455213
     2  C    0.454879
     3  C   -0.168163
     4  C   -0.310846
     5  C   -0.281387
     6  C   -0.096817
     7  C   -0.282506
     8  C   -0.167333
     9  C   -0.290392
    10  C   -0.006041
    11  C    0.178748
    12  C   -0.187823
    13  C   -0.141943
    14  C    0.133448
    15  C    0.236033
    16  N   -0.477569
    17  C   -0.142563
    18  C   -0.195436
    19  C   -0.275706
    20  H    0.146837
    21  H    0.144925
    22  H    0.152379
    23  H    0.140677
    24  H    0.148618
    25  H    0.131676
    26  H    0.138440
    27  H    0.148904
    28  H    0.147854
    29  H    0.154042
    30  H    0.142080
    31  H    0.140545
    32  H    0.158796
    33  H    0.159434
    34  H    0.145170
    35  H    0.140611
    36  H    0.135641
 Sum of Mulliken charges =  -0.00000

 Dipole moment (field-independent basis, Debye):
    X=             -3.2970    Y=              1.9420    Z=              1.8771  Tot=              4.2621
 Quadrupole moment (field-independent basis, Debye-Ang):
   XX=           -161.7265   YY=           -106.1601   ZZ=           -111.8887
   XY=             -7.7781   XZ=             -6.6933   YZ=             -6.0457

  Exact polarizability: 251.975  -0.365 151.247  -1.387  -9.861 120.763
 Approx polarizability: 348.904   4.239 256.702   1.329 -20.267 189.839

                      1                      2                      3
                      A                      A                      A
 Frequencies --     43.9507                55.1033                84.5275
 Red. masses --      5.7701                 4.5945                 8.1775
 Frc consts  --      0.0066                 0.0082                 0.0344
 IR Inten    --      1.9647                 1.6411                 3.5645

                      4                      5                      6
                      A                      A                      A
 Frequencies --    103.8691               153.3610               173.3855
 Red. masses --      6.8850                 5.5473                 4.9269
 Frc consts  --      0.0438                 0.0769                 0.0873
 IR Inten    --      2.1587                 2.3019                 2.5670

                      7                      8                      9
                      A                      A                      A
 Frequencies --    238.4857               270.3303               284.0607
 Red. masses --      6.5637                 2.7318                 2.4630
 Frc consts  --      0.2199                 0.1176                 0.1171
 IR Inten    --      0.4468                 0.0721                 1.2922

                     10                     11                     12
                      A                      A                      A
 Frequencies --    298.2858               347.4308               375.5088
 Red. masses --      3.9476                 3.7564                 4.8282
 Frc consts  --      0.2069                 0.2672                 0.4011
 IR Inten    --      0.7850                 1.1607                 1.1227

                     13                     14                     15
                      A                      A                      A
 Frequencies --    387.9292               412.6137               414.6253
 Red. masses --      2.7305                 3.0999                 3.1436
 Frc consts  --      0.2421                 0.3109                 0.3184
 IR Inten    --      0.1195                 0.1236                 0.1999

                     16                     17                     18
                      A                      A                      A
 Frequencies --    441.1192               444.3264               477.1880
 Red. masses --      1.9465                 2.1612                 3.8227
 Frc consts  --      0.2232                 0.2514                 0.5129
 IR Inten    --      0.6618                 3.7119                 6.4566

                     19                     20                     21
                      A                      A                      A
 Frequencies --    503.6012               519.4031               561.9952
 Red. masses --      5.0575                 6.5010                 7.2087
 Frc consts  --      0.7557                 1.0333                 1.3414
 IR Inten    --      0.5003                 1.0825                 0.0890

                     22                     23                     24
                      A                      A                      A
 Frequencies --    585.3369               617.0908               636.2689
 Red. masses --      2.9252                 5.3652                 3.6496
 Frc consts  --      0.5905                 1.2038                 0.8705
 IR Inten    --     17.5539                 0.4663                 1.6715

                     25                     26                     27
                      A                      A                      A
 Frequencies --    664.2929               672.4245               718.8279
 Red. masses --      7.0537                 4.9088                 3.9720
 Frc consts  --      1.8339                 1.3077                 1.2092
 IR Inten    --      0.4378                 0.6511                 3.4874

                     28                     29                     30
                      A                      A                      A
 Frequencies --    747.9669               782.0485               789.9487
 Red. masses --      4.3646                 4.8141                 3.9831
 Frc consts  --      1.4387                 1.7347                 1.4644
 IR Inten    --      0.0164                 0.1974                 0.5722

                     31                     32                     33
                      A                      A                      A
 Frequencies --    804.8179               847.7659               853.5185
 Red. masses --      2.9545                 1.7814                 1.2912
 Frc consts  --      1.1275                 0.7543                 0.5542
 IR Inten    --      0.8806                29.5121                 0.0205

                     34                     35                     36
                      A                      A                      A
 Frequencies --    863.2393               871.8301               896.2224
 Red. masses --      2.2945                 3.5594                 1.5978
 Frc consts  --      1.0074                 1.5940                 0.7561
 IR Inten    --      4.9378                 0.7248                 2.4490

                     37                     38                     39
                      A                      A                      A
 Frequencies --    904.1813               919.1810               956.5806
 Red. masses --      1.5808                 2.2655                 2.1655
 Frc consts  --      0.7615                 1.1278                 1.1675
 IR Inten    --      0.2816                 3.9483                 0.7146

                     40                     41                     42
                      A                      A                      A
 Frequencies --    972.3129               974.7339               980.4153
 Red. masses --      1.3844                 1.7346                 1.8010
 Frc consts  --      0.7711                 0.9710                 1.0199
 IR Inten    --      0.1362                 2.0102                 1.5868

                     43                     44                     45
                      A                      A                      A
 Frequencies --    986.5446              1017.5555              1033.3284
 Red. masses --      1.9271                 2.0587                 4.5896
 Frc consts  --      1.1051                 1.2559                 2.8873
 IR Inten    --      0.4227                 2.9923                10.9341

                     46                     47                     48
                      A                      A                      A
 Frequencies --   1050.3106              1051.8776              1071.9495
 Red. masses --      2.9641                 2.4244                 1.9723
 Frc consts  --      1.9265                 1.5805                 1.3353
 IR Inten    --      0.5910                 0.2353                 5.7991

                     49                     50                     51
                      A                      A                      A
 Frequencies --   1080.3894              1096.3976              1124.8032
 Red. masses --      1.8905                 1.7679                 1.4597
 Frc consts  --      1.3002                 1.2521                 1.0881
 IR Inten    --     23.6969                 0.6352                 0.4898

                     52                     53                     54
                      A                      A                      A
 Frequencies --   1136.8662              1154.6166              1166.7462
 Red. masses --      1.3134                 1.3436                 1.1199
 Frc consts  --      1.0001                 1.0553                 0.8983
 IR Inten    --      0.0233                 2.3013                 0.2284

                     55                     56                     57
                      A                      A                      A
 Frequencies --   1210.9107              1214.6640              1229.9826
 Red. masses --      1.1484                 2.3109                 2.1632
 Frc consts  --      0.9921                 2.0088                 1.9282
 IR Inten    --      0.1036                 1.9197                 0.8780

                     58                     59                     60
                      A                      A                      A
 Frequencies --   1240.1348              1249.0688              1269.9178
 Red. masses --      1.9798                 1.9322                 1.5265
 Frc consts  --      1.7940                 1.7762                 1.4505
 IR Inten    --      8.0478                 0.4538                 5.9247

                     61                     62                     63
                      A                      A                      A
 Frequencies --   1274.7458              1297.7814              1307.3980
 Red. masses --      1.6121                 1.4293                 1.6369
 Frc consts  --      1.5434                 1.4183                 1.6485
 IR Inten    --      1.5067                 0.4503                 0.8408

                     64                     65                     66
                      A                      A                      A
 Frequencies --   1331.0636              1336.9651              1342.6310
 Red. masses --      1.5769                 3.1034                 2.4338
 Frc consts  --      1.6461                 3.2683                 2.5850
 IR Inten    --      3.9592                 3.8608                 5.0014

                     67                     68                     69
                      A                      A                      A
 Frequencies --   1350.2280              1354.6082              1363.5463
 Red. masses --      1.3732                 1.4356                 1.3908
 Frc consts  --      1.4750                 1.5521                 1.5236
 IR Inten    --      0.3164                 2.2542                 0.1726

                     70                     71                     72
                      A                      A                      A
 Frequencies --   1382.3368              1388.5986              1395.5966
 Red. masses --      1.7006                 1.4774                 1.5107
 Frc consts  --      1.9146                 1.6785                 1.7336
 IR Inten    --      1.7745                 1.3356                 2.5058

                     73                     74                     75
                      A                      A                      A
 Frequencies --   1400.4042              1411.2070              1452.8407
 Red. masses --      1.5415                 1.4408                 2.7135
 Frc consts  --      1.7812                 1.6905                 3.3746
 IR Inten    --      1.3734                 0.5707                 6.7439

                     76                     77                     78
                      A                      A                      A
 Frequencies --   1509.1493              1512.9001              1522.2372
 Red. masses --      1.0857                 1.0899                 1.0947
 Frc consts  --      1.4569                 1.4698                 1.4945
 IR Inten    --      0.4173                 3.5058                 9.7188

                     79                     80                     81
                      A                      A                      A
 Frequencies --   1526.6032              1543.1246              1557.1080
 Red. masses --      1.0947                 1.0929                 2.2574
 Frc consts  --      1.5031                 1.5334                 3.2248
 IR Inten    --      8.3009                 0.8287                21.0894

                     82                     83                     84
                      A                      A                      A
 Frequencies --   1607.2522              1666.8241              1824.0025
 Red. masses --      6.0327                 5.5751                11.2443
 Frc consts  --      9.1818                 9.1261                22.0411
 IR Inten    --      0.8408                28.5333               242.0298

                     85                     86                     87
                      A                      A                      A
 Frequencies --   2348.0648              3033.0864              3034.7740
 Red. masses --     12.6811                 1.0597                 1.0636
 Frc consts  --     41.1935                 5.7437                 5.7715
 IR Inten    --     44.5301                15.3553                14.8251

                     88                     89                     90
                      A                      A                      A
 Frequencies --   3036.1405              3039.2317              3046.2437
 Red. masses --      1.0613                 1.0624                 1.0611
 Frc consts  --      5.7643                 5.7817                 5.8014
 IR Inten    --     31.7615                26.4475                36.7124

                     91                     92                     93
                      A                      A                      A
 Frequencies --   3057.6670              3074.2203              3075.9549
 Red. masses --      1.0793                 1.1047                 1.1046
 Frc consts  --      5.9453                 6.1514                 6.1577
 IR Inten    --     71.0439                 1.7736                16.5464

                     94                     95                     96
                      A                      A                      A
 Frequencies --   3078.7632              3081.6698              3085.8259
 Red. masses --      1.1036                 1.1040                 1.1046
 Frc consts  --      6.1632                 6.1770                 6.1974
 IR Inten    --     54.1862                35.1782                35.6093

                     97                     98                     99
                      A                      A                      A
 Frequencies --   3091.8422              3093.7712              3199.1014
 Red. masses --      1.0862                 1.0869                 1.0874
 Frc consts  --      6.1179                 6.1292                 6.5570
 IR Inten    --     35.2077                22.0006                 9.8441

                    100                    101                    102
                      A                      A                      A
 Frequencies --   3211.9030              3218.9753              3232.6820
 Red. masses --      1.0894                 1.0945                 1.0924
 Frc consts  --      6.6214                 6.6816                 6.7259
 IR Inten    --      3.0181                 7.1392                 5.9167

 - Thermochemistry -
 -------------------
 Temperature   298.150 Kelvin.  Pressure   1.00000 Atm.
 Atom     1 has atomic number  8 and mass  15.99491

 Molecular mass:   251.13101 amu.
 Principal axes and moments of inertia in atomic units:
                           1         2         3
     Eigenvalues --  1636.505989311.153489584.96003
           X            0.99996  -0.00705  -0.00500
           Y            0.00650   0.99471  -0.10253
           Z            0.00569   0.10249   0.99472
 This molecule is an asymmetric top.
 Rotational symmetry number  1.
 Warning -- assumption of classical behavior for rotation
           may cause significant error
 Rotational temperatures (Kelvin)      0.05293     0.00930     0.00904
 Rotational constants (GHZ):           1.10280     0.19383     0.18829
 Zero-point vibrational energy     799914.4 (Joules/Mol)
                                  191.18412 (Kcal/Mol)
 Warning -- explicit consideration of  23 degrees of freedom as
           vibrations may cause significant error
 Vibrational temperatures:     63.24    79.28   121.62   149.44   220.65
          (Kelvin)            249.46   343.13   388.95   408.70   429.17
                              499.88   540.27   558.14   593.66   596.55
                              634.67   639.29   686.57   724.57   747.31
                              808.59   842.17   887.86   915.45   955.77
                              967.47  1034.23  1076.16  1125.19  1136.56
                             1157.95  1219.75  1228.02  1242.01  1254.37
                             1289.46  1300.92  1322.50  1376.31  1398.94
                             1402.42  1410.60  1419.42  1464.04  1486.73
                             1511.16  1513.42  1542.30  1554.44  1577.47
                             1618.34  1635.70  1661.24  1678.69  1742.23
                             1747.63  1769.67  1784.28  1797.13  1827.13
                             1834.07  1867.22  1881.05  1915.10  1923.59
                             1931.75  1942.68  1948.98  1961.84  1988.87
                             1997.88  2007.95  2014.87  2030.41  2090.31
                             2171.33  2176.73  2190.16  2196.44  2220.21
                             2240.33  2312.48  2398.19  2624.33  3378.34
                             4363.93  4366.36  4368.33  4372.78  4382.87
                             4399.30  4423.12  4425.61  4429.65  4433.84
                             4439.82  4448.47  4451.25  4602.79  4621.21
                             4631.39  4651.11

 Zero-point correction=                           0.304671 (Hartree/Particle)
 Thermal correction to Energy=                    0.319054
 Thermal correction to Enthalpy=                  0.319998
 Thermal correction to Gibbs Free Energy=         0.263295
 Sum of electronic and zero-point Energies=           -787.722147
 Sum of electronic and thermal Energies=              -787.707765
 Sum of electronic and thermal Enthalpies=            -787.706820
 Sum of electronic and thermal Free Energies=         -787.763523

                     E (Thermal)             CV                S
                      KCal/Mol        Cal/Mol-Kelvin    Cal/Mol-Kelvin
 Total                  200.209             60.322            119.341
 Electronic               0.000              0.000              0.000
 Translational            0.889              2.981             42.463
 Rotational               0.889              2.981             33.346
 Vibrational            198.432             54.360             43.532
 Vibration     1          0.595              1.980              5.073
 Vibration     2          0.596              1.976              4.625
 Vibration     3          0.601              1.960              3.783
 Vibration     4          0.605              1.946              3.380
 Vibration     5          0.619              1.899              2.630
 Vibration     6          0.627              1.875              2.398
 Vibration     7          0.656              1.782              1.814
 Vibration     8          0.674              1.728              1.594
 Vibration     9          0.682              1.703              1.509
 Vibration    10          0.691              1.677              1.427
 Vibration    11          0.725              1.580              1.178
 Vibration    12          0.746              1.522              1.057
 Vibration    13          0.756              1.496              1.008
 Vibration    14          0.776              1.443              0.917
 Vibration    15          0.778              1.438              0.910
 Vibration    16          0.801              1.380              0.823
 Vibration    17          0.804              1.373              0.813
 Vibration    18          0.834              1.301              0.718
 Vibration    19          0.859              1.242              0.649
 Vibration    20          0.874              1.207              0.611
 Vibration    21          0.918              1.114              0.520
 Vibration    22          0.942              1.063              0.476
 Vibration    23          0.977              0.996              0.421

 Normal termination of Gaussian 16 at Fri Feb 23 22:11:55 2024.
