 Gaussian 16, Revision A.03,
 Gaussian 16:  EM64M-G16RevA.03 25-Dec-2016

 ---------------------
 # freq b3lyp/6-31g(d)
 ---------------------

 ---------
 good luck
 ---------
 Symbolic Z-matrix:
 Charge =  0 Multiplicity = 1

                         Standard orientation:
 ---------------------------------------------------------------------
 Center     Atomic      Atomic             Coordinates (Angstroms)
 Number     Number       Type             X           Y           Z
 ---------------------------------------------------------------------
      1          8           0        3.907013   -1.512158   -1.400844
      2          6           0        3.130633   -0.822687   -0.768729
      3          6           0        2.547400    0.490473   -1.278477
      4          6           0        1.004682    0.362934   -1.308619
      5          6           0        2.955333    1.619466   -0.299390
      6          6           0        2.431841    1.294363    1.113579
      7          6           0        3.044965   -0.034173    1.594131
      8          6           0        2.627931   -1.170209    0.628810
      9          6           0        1.083818   -1.278076    0.586989
     10          6           0        0.441676    0.049093    0.109120
     11          6           0       -1.088894   -0.018394    0.057605
     12          6           0       -1.811716   -1.168995    0.407254
     13          6           0       -3.203426   -1.201791    0.351399
     14          6           0       -3.918168   -0.068964   -0.060911
     15          6           0       -5.350153   -0.094804   -0.120241
     16          7           0       -6.512467   -0.114610   -0.168210
     17          6           0       -3.212984    1.093273   -0.415270
     18          6           0       -1.825571    1.107921   -0.353750
     19          6           0        0.894910    1.176350    1.083048
     20          1           0        2.937026    0.678604   -2.283916
     21          1           0        0.702700   -0.428469   -2.006514
     22          1           0        0.578776    1.298948   -1.690270
     23          1           0        4.047231    1.729480   -0.285939
     24          1           0        2.541658    2.574069   -0.652065
     25          1           0        2.716165    2.099723    1.802847
     26          1           0        4.139068    0.041340    1.637449
     27          1           0        2.699034   -0.272586    2.608959
     28          1           0        3.068831   -2.125894    0.928994
     29          1           0        0.722077   -1.534778    1.591523
     30          1           0        0.794804   -2.100415   -0.079993
     31          1           0       -1.293440   -2.064089    0.730461
     32          1           0       -3.739538   -2.104439    0.626820
     33          1           0       -3.757774    1.975429   -0.736258
     34          1           0       -1.307910    2.020424   -0.633555
     35          1           0        0.510095    0.962197    2.088988
     36          1           0        0.458688    2.135296    0.777399
 ---------------------------------------------------------------------

 SCF Done:  E(RB3LYP) =  -788.026818442     A.U. after   15 cycles

 The electronic state is 1-A.
 Alpha  occ. eigenvalues --  -19.14084 -14.33527 -10.27189 -10.24049 -10.22850
 Alpha  occ. eigenvalues --  -10.22452 -10.22379 -10.22100 -10.22076 -10.21344
 Alpha  occ. eigenvalues --  -10.21267 -10.20601 -10.20503 -10.20501 -10.20396
 Alpha  occ. eigenvalues --  -10.20356 -10.20117 -10.20073 -10.20004  -1.03923
 Alpha  occ. eigenvalues --   -0.90736  -0.89436  -0.87481  -0.81348  -0.79197
 Alpha  occ. eigenvalues --   -0.77906  -0.77146  -0.75861  -0.69081  -0.66556
 Alpha  occ. eigenvalues --   -0.65353  -0.63431  -0.60960  -0.59411  -0.58238
 Alpha  occ. eigenvalues --   -0.56822  -0.52280  -0.49395  -0.48628  -0.47384
 Alpha  occ. eigenvalues --   -0.46822  -0.46221  -0.45316  -0.44901  -0.44452
 Alpha  occ. eigenvalues --   -0.43992  -0.43077  -0.42023  -0.41184  -0.41035
 Alpha  occ. eigenvalues --   -0.40167  -0.38672  -0.37888  -0.37605  -0.37030
 Alpha  occ. eigenvalues --   -0.35793  -0.35728  -0.34925  -0.34612  -0.33947
 Alpha  occ. eigenvalues --   -0.32958  -0.31489  -0.31298  -0.30714  -0.27638
 Alpha  occ. eigenvalues --   -0.26009  -0.23838
 Alpha virt. eigenvalues --   -0.05247  -0.02678  -0.01707   0.03641   0.05614
 Alpha virt. eigenvalues --    0.07255   0.07840   0.09727   0.10671   0.11608
 Alpha virt. eigenvalues --    0.11924   0.12206   0.13242   0.13526   0.14354

 Mulliken charges:
               1
     1  O   -0.455213
     2  C    0.454879
     3  C   -0.167333
     4  C   -0.290392
     5  C   -0.282506
     6  C   -0.096817
     7  C   -0.281387
     8  C   -0.168163
     9  C   -0.310846
    10  C   -0.006041
    11  C    0.178749
    12  C   -0.195435
    13  C   -0.142563
    14  C    0.133448
    15  C    0.236032
    16  N   -0.477568
    17  C   -0.141943
    18  C   -0.187823
    19  C   -0.275706
    20  H    0.147854
    21  H    0.154042
    22  H    0.142080
    23  H    0.148904
    24  H    0.138440
    25  H    0.131676
    26  H    0.148617
    27  H    0.140677
    28  H    0.146837
    29  H    0.144925
    30  H    0.152379
    31  H    0.145170
    32  H    0.159434
    33  H    0.158796
    34  H    0.140545
    35  H    0.140611
    36  H    0.135640
 Sum of Mulliken charges =  -0.00000

 Dipole moment (field-independent basis, Debye):
    X=              3.2970    Y=              1.9420    Z=              1.8772  Tot=              4.2621
 Quadrupole moment (field-independent basis, Debye-Ang):
   XX=           -161.7262   YY=           -106.1601   ZZ=           -111.8889
   XY=              7.7779   XZ=              6.6932   YZ=             -6.0458

  Exact polarizability: 251.974   0.366 151.246   1.387  -9.861 120.763
 Approx polarizability: 348.903  -4.238 256.701  -1.328 -20.267 189.840

                      1                      2                      3
                      A                      A                      A
 Frequencies --     43.9463                55.0989                84.5262
 Red. masses --      5.7698                 4.5947                 8.1775
 Frc consts  --      0.0066                 0.0082                 0.0344
 IR Inten    --      1.9644                 1.6414                 3.5647

                      4                      5                      6
                      A                      A                      A
 Frequencies --    103.8666               153.3576               173.3808
 Red. masses --      6.8854                 5.5473                 4.9268
 Frc consts  --      0.0438                 0.0769                 0.0873
 IR Inten    --      2.1588                 2.3020                 2.5668

                      7                      8                      9
                      A                      A                      A
 Frequencies --    238.4860               270.3287               284.0593
 Red. masses --      6.5636                 2.7318                 2.4630
 Frc consts  --      0.2199                 0.1176                 0.1171
 IR Inten    --      0.4468                 0.0721                 1.2922

                     10                     11                     12
                      A                      A                      A
 Frequencies --    298.2846               347.4307               375.5084
 Red. masses --      3.9476                 3.7564                 4.8283
 Frc consts  --      0.2069                 0.2671                 0.4011
 IR Inten    --      0.7849                 1.1606                 1.1227

                     13                     14                     15
                      A                      A                      A
 Frequencies --    387.9283               412.6120               414.6244
 Red. masses --      2.7305                 3.0999                 3.1436
 Frc consts  --      0.2421                 0.3109                 0.3184
 IR Inten    --      0.1195                 0.1235                 0.2000

                     16                     17                     18
                      A                      A                      A
 Frequencies --    441.1183               444.3255               477.1880
 Red. masses --      1.9465                 2.1613                 3.8227
 Frc consts  --      0.2232                 0.2514                 0.5129
 IR Inten    --      0.6617                 3.7121                 6.4564

                     19                     20                     21
                      A                      A                      A
 Frequencies --    503.5991               519.4035               561.9930
 Red. masses --      5.0575                 6.5010                 7.2087
 Frc consts  --      0.7557                 1.0333                 1.3414
 IR Inten    --      0.5003                 1.0825                 0.0889

                     22                     23                     24
                      A                      A                      A
 Frequencies --    585.3352               617.0907               636.2689
 Red. masses --      2.9251                 5.3652                 3.6497
 Frc consts  --      0.5905                 1.2038                 0.8705
 IR Inten    --     17.5540                 0.4663                 1.6715

                     25                     26                     27
                      A                      A                      A
 Frequencies --    664.2931               672.4258               718.8290
 Red. masses --      7.0537                 4.9087                 3.9720
 Frc consts  --      1.8339                 1.3077                 1.2092
 IR Inten    --      0.4378                 0.6511                 3.4873

                     28                     29                     30
                      A                      A                      A
 Frequencies --    747.9665               782.0492               789.9488
 Red. masses --      4.3646                 4.8141                 3.9830
 Frc consts  --      1.4387                 1.7347                 1.4644
 IR Inten    --      0.0164                 0.1974                 0.5723

                     31                     32                     33
                      A                      A                      A
 Frequencies --    804.8183               847.7643               853.5164
 Red. masses --      2.9545                 1.7812                 1.2913
 Frc consts  --      1.1275                 0.7543                 0.5543
 IR Inten    --      0.8806                29.5119                 0.0206

                     34                     35                     36
                      A                      A                      A
 Frequencies --    863.2393               871.8315               896.2218
 Red. masses --      2.2944                 3.5594                 1.5978
 Frc consts  --      1.0074                 1.5940                 0.7561
 IR Inten    --      4.9379                 0.7248                 2.4489

                     37                     38                     39
                      A                      A                      A
 Frequencies --    904.1809               919.1806               956.5810
 Red. masses --      1.5808                 2.2655                 2.1654
 Frc consts  --      0.7615                 1.1278                 1.1674
 IR Inten    --      0.2815                 3.9482                 0.7146

                     40                     41                     42
                      A                      A                      A
 Frequencies --    972.3109               974.7334               980.4162
 Red. masses --      1.3842                 1.7348                 1.8010
 Frc consts  --      0.7710                 0.9711                 1.0200
 IR Inten    --      0.1356                 2.0106                 1.5869

                     43                     44                     45
                      A                      A                      A
 Frequencies --    986.5442              1017.5560              1033.3290
 Red. masses --      1.9271                 2.0587                 4.5895
 Frc consts  --      1.1051                 1.2559                 2.8873
 IR Inten    --      0.4226                 2.9923                10.9341

                     46                     47                     48
                      A                      A                      A
 Frequencies --   1050.3119              1051.8782              1071.9502
 Red. masses --      2.9640                 2.4245                 1.9722
 Frc consts  --      1.9265                 1.5805                 1.3352
 IR Inten    --      0.5909                 0.2353                 5.7995

                     49                     50                     51
                      A                      A                      A
 Frequencies --   1080.3897              1096.3973              1124.8027
 Red. masses --      1.8905                 1.7679                 1.4597
 Frc consts  --      1.3002                 1.2521                 1.0881
 IR Inten    --     23.6961                 0.6351                 0.4898

                     52                     53                     54
                      A                      A                      A
 Frequencies --   1136.8655              1154.6180              1166.7458
 Red. masses --      1.3134                 1.3436                 1.1199
 Frc consts  --      1.0001                 1.0553                 0.8983
 IR Inten    --      0.0233                 2.3014                 0.2284

                     55                     56                     57
                      A                      A                      A
 Frequencies --   1210.9103              1214.6655              1229.9851
 Red. masses --      1.1484                 2.3105                 2.1635
 Frc consts  --      0.9921                 2.0085                 1.9284
 IR Inten    --      0.1036                 1.9197                 0.8786

                     58                     59                     60
                      A                      A                      A
 Frequencies --   1240.1357              1249.0700              1269.9184
 Red. masses --      1.9799                 1.9322                 1.5265
 Frc consts  --      1.7940                 1.7762                 1.4504
 IR Inten    --      8.0477                 0.4537                 5.9247

                     61                     62                     63
                      A                      A                      A
 Frequencies --   1274.7463              1297.7818              1307.3985
 Red. masses --      1.6121                 1.4293                 1.6369
 Frc consts  --      1.5434                 1.4183                 1.6485
 IR Inten    --      1.5067                 0.4504                 0.8408

                     64                     65                     66
                      A                      A                      A
 Frequencies --   1331.0639              1336.9684              1342.6328
 Red. masses --      1.5769                 3.1019                 2.4347
 Frc consts  --      1.6461                 3.2667                 2.5859
 IR Inten    --      3.9592                 3.8628                 4.9994

                     67                     68                     69
                      A                      A                      A
 Frequencies --   1350.2282              1354.6076              1363.5462
 Red. masses --      1.3732                 1.4356                 1.3908
 Frc consts  --      1.4750                 1.5521                 1.5236
 IR Inten    --      0.3162                 2.2541                 0.1726

                     70                     71                     72
                      A                      A                      A
 Frequencies --   1382.3367              1388.5980              1395.5964
 Red. masses --      1.7006                 1.4774                 1.5107
 Frc consts  --      1.9146                 1.6785                 1.7336
 IR Inten    --      1.7744                 1.3357                 2.5056

                     73                     74                     75
                      A                      A                      A
 Frequencies --   1400.4041              1411.2071              1452.8427
 Red. masses --      1.5415                 1.4408                 2.7136
 Frc consts  --      1.7812                 1.6905                 3.3747
 IR Inten    --      1.3735                 0.5707                 6.7438

                     76                     77                     78
                      A                      A                      A
 Frequencies --   1509.1490              1512.9001              1522.2369
 Red. masses --      1.0857                 1.0899                 1.0947
 Frc consts  --      1.4569                 1.4698                 1.4945
 IR Inten    --      0.4173                 3.5059                 9.7188

                     79                     80                     81
                      A                      A                      A
 Frequencies --   1526.6029              1543.1244              1557.1100
 Red. masses --      1.0947                 1.0929                 2.2575
 Frc consts  --      1.5031                 1.5334                 3.2248
 IR Inten    --      8.3008                 0.8287                21.0896

                     82                     83                     84
                      A                      A                      A
 Frequencies --   1607.2565              1666.8276              1824.0028
 Red. masses --      6.0328                 5.5752                11.2443
 Frc consts  --      9.1821                 9.1262                22.0411
 IR Inten    --      0.8406                28.5335               242.0295

                     85                     86                     87
                      A                      A                      A
 Frequencies --   2348.0750              3033.0903              3034.7767
 Red. masses --     12.6811                 1.0597                 1.0636
 Frc consts  --     41.1938                 5.7437                 5.7715
 IR Inten    --     44.5300                15.3559                14.8475

                     88                     89                     90
                      A                      A                      A
 Frequencies --   3036.1443              3039.2354              3046.2467
 Red. masses --      1.0613                 1.0624                 1.0611
 Frc consts  --      5.7643                 5.7817                 5.8014
 IR Inten    --     31.7541                26.4298                36.7155

                     91                     92                     93
                      A                      A                      A
 Frequencies --   3057.6729              3074.2244              3075.9555
 Red. masses --      1.0793                 1.1047                 1.1046
 Frc consts  --      5.9454                 6.1514                 6.1577
 IR Inten    --     71.0419                 1.7671                16.5350

                     94                     95                     96
                      A                      A                      A
 Frequencies --   3078.7667              3081.6693              3085.8276
 Red. masses --      1.1036                 1.1040                 1.1046
 Frc consts  --      6.1632                 6.1770                 6.1974
 IR Inten    --     54.1930                35.2006                35.5992

                     97                     98                     99
                      A                      A                      A
 Frequencies --   3091.8464              3093.7732              3199.0962
 Red. masses --      1.0862                 1.0869                 1.0874
 Frc consts  --      6.1180                 6.1292                 6.5570
 IR Inten    --     35.2116                21.9967                 9.8440

                    100                    101                    102
                      A                      A                      A
 Frequencies --   3211.9165              3218.9729              3232.6968
 Red. masses --      1.0894                 1.0945                 1.0924
 Frc consts  --      6.6215                 6.6816                 6.7259
 IR Inten    --      3.0189                 7.1377                 5.9174

 - Thermochemistry -
 -------------------
 Temperature   298.150 Kelvin.  Pressure   1.00000 Atm.
 Atom     1 has atomic number  8 and mass  15.99491

 Molecular mass:   251.13101 amu.
 Principal axes and moments of inertia in atomic units:
                           1         2         3
     Eigenvalues --  1636.508869311.136549584.93261
           X            0.99996   0.00705   0.00500
           Y           -0.00650   0.99471  -0.10253
           Z           -0.00569   0.10250   0.99472
 This molecule is an asymmetric top.
 Rotational symmetry number  1.
 Warning -- assumption of classical behavior for rotation
           may cause significant error
 Rotational temperatures (Kelvin)      0.05293     0.00930     0.00904
 Rotational constants (GHZ):           1.10280     0.19383     0.18829
 Zero-point vibrational energy     799914.7 (Joules/Mol)
                                  191.18421 (Kcal/Mol)
 Warning -- explicit consideration of  23 degrees of freedom as
           vibrations may cause significant error
 Vibrational temperatures:     63.23    79.28   121.61   149.44   220.65
          (Kelvin)            249.46   343.13   388.94   408.70   429.16
                              499.88   540.27   558.14   593.66   596.55
                              634.67   639.29   686.57   724.57   747.31
                              808.58   842.17   887.86   915.45   955.77
                              967.47  1034.23  1076.16  1125.19  1136.56
                             1157.95  1219.74  1228.02  1242.01  1254.37
                             1289.46  1300.91  1322.50  1376.31  1398.94
                             1402.42  1410.60  1419.42  1464.04  1486.73
                             1511.16  1513.42  1542.30  1554.44  1577.47
                             1618.34  1635.70  1661.24  1678.69  1742.23
                             1747.63  1769.67  1784.28  1797.13  1827.13
                             1834.08  1867.22  1881.05  1915.10  1923.60
                             1931.75  1942.68  1948.98  1961.84  1988.87
                             1997.88  2007.95  2014.87  2030.41  2090.32
                             2171.33  2176.73  2190.16  2196.44  2220.21
                             2240.33  2312.48  2398.19  2624.33  3378.36
                             4363.94  4366.37  4368.33  4372.78  4382.87
                             4399.31  4423.12  4425.61  4429.66  4433.83
                             4439.82  4448.48  4451.25  4602.79  4621.23
                             4631.38  4651.13

 Zero-point correction=                           0.304671 (Hartree/Particle)
 Thermal correction to Energy=                    0.319054
 Thermal correction to Enthalpy=                  0.319998
 Thermal correction to Gibbs Free Energy=         0.263295
 Sum of electronic and zero-point Energies=           -787.722147
 Sum of electronic and thermal Energies=              -787.707764
 Sum of electronic and thermal Enthalpies=            -787.706820
 Sum of electronic and thermal Free Energies=         -787.763523

                     E (Thermal)             CV                S
                      KCal/Mol        Cal/Mol-Kelvin    Cal/Mol-Kelvin
 Total                  200.209             60.322            119.341
 Electronic               0.000              0.000              0.000
 Translational            0.889              2.981             42.463
 Rotational               0.889              2.981             33.346
 Vibrational            198.432             54.360             43.533
 Vibration     1          0.595              1.980              5.073
 Vibration     2          0.596              1.976              4.625
 Vibration     3          0.601              1.960              3.783
 Vibration     4          0.605              1.946              3.380
 Vibration     5          0.619              1.899              2.630
 Vibration     6          0.627              1.875              2.399
 Vibration     7          0.656              1.782              1.814
 Vibration     8          0.674              1.728              1.594
 Vibration     9          0.682              1.703              1.509
 Vibration    10          0.691              1.677              1.427
 Vibration    11          0.725              1.580              1.178
 Vibration    12          0.746              1.522              1.057
 Vibration    13          0.756              1.496              1.008
 Vibration    14          0.776              1.443              0.917
 Vibration    15          0.778              1.438              0.910
 Vibration    16          0.801              1.380              0.823
 Vibration    17          0.804              1.373              0.813
 Vibration    18          0.834              1.301              0.718
 Vibration    19          0.859              1.242              0.649
 Vibration    20          0.874              1.207              0.611
 Vibration    21          0.918              1.114              0.520
 Vibration    22          0.942              1.063              0.476
 Vibration    23          0.977              0.996              0.421

 Normal termination of Gaussian 16 at Fri Feb 23 22:02:45 2024.
