 Gaussian 16, Revision A.03,
 Gaussian 16:  EM64M-G16RevA.03 25-Dec-2016

 ---------------------
 # freq b3lyp/6-31g(d)
 ---------------------

 ---------
 good luck
 ---------
 Symbolic Z-matrix:
 Charge =  0 Multiplicity = 1

                         Standard orientation:
 ---------------------------------------------------------------------
 Center     Atomic      Atomic             Coordinates (Angstroms)
 Number     Number       Type             X           Y           Z
 ---------------------------------------------------------------------
      1          8           0       -3.767039   -2.168276   -0.000006
      2          6           0       -3.056627   -1.181651   -0.000003
      3          6           0       -2.559050   -0.493715    1.268269
      4          6           0       -1.010704   -0.519473    1.262627
      5          6           0       -3.052365    0.972906    1.257567
      6          6           0       -2.516361    1.682739    0.000005
      7          6           0       -3.052366    0.972912   -1.257562
      8          6           0       -2.559051   -0.493707   -1.268271
      9          6           0       -1.010706   -0.519465   -1.262630
     10          6           0       -0.444625    0.194852    0.000000
     11          6           0        1.086669    0.116385   -0.000001
     12          6           0        1.904223    1.256565   -0.000003
     13          6           0        3.293869    1.158156   -0.000002
     14          6           0        3.910245   -0.100633    0.000000
     15          6           0        5.339595   -0.209074   -0.000001
     16          7           0        6.499779   -0.296611   -0.000001
     17          6           0        3.109189   -1.254729    0.000002
     18          6           0        1.725148   -1.137844    0.000002
     19          6           0       -0.974429    1.651125    0.000005
     20          1           0       -2.948697   -1.037673    2.134577
     21          1           0       -0.632308   -0.024457    2.166796
     22          1           0       -0.660475   -1.557626    1.301822
     23          1           0       -4.149363    1.003807    1.275657
     24          1           0       -2.701776    1.481685    2.165650
     25          1           0       -2.850868    2.727897    0.000008
     26          1           0       -4.149364    1.003816   -1.275650
     27          1           0       -2.701777    1.481698   -2.165640
     28          1           0       -2.948699   -1.037660   -2.134583
     29          1           0       -0.660476   -1.557618   -1.301834
     30          1           0       -0.632310   -0.024443   -2.166797
     31          1           0        1.462599    2.246157   -0.000002
     32          1           0        3.904764    2.055334   -0.000003
     33          1           0        3.577260   -2.233969    0.000005
     34          1           0        1.132506   -2.047696    0.000005
     35          1           0       -0.599537    2.185569   -0.883072
     36          1           0       -0.599537    2.185565    0.883086
 ---------------------------------------------------------------------

 SCF Done:  E(RB3LYP) =  -788.026988002     A.U. after   15 cycles

 The electronic state is 1-A.
 Alpha  occ. eigenvalues --  -19.14113 -14.33508 -10.27224 -10.24027 -10.22830
 Alpha  occ. eigenvalues --  -10.22451 -10.22360 -10.22065 -10.22060 -10.21300
 Alpha  occ. eigenvalues --  -10.21248 -10.20642 -10.20504 -10.20503 -10.20359
 Alpha  occ. eigenvalues --  -10.20357 -10.20067 -10.20066 -10.20007  -1.03945
 Alpha  occ. eigenvalues --   -0.90715  -0.89428  -0.87464  -0.81342  -0.79134
 Alpha  occ. eigenvalues --   -0.78013  -0.77035  -0.75870  -0.68924  -0.66899
 Alpha  occ. eigenvalues --   -0.65361  -0.62805  -0.61416  -0.59363  -0.58128
 Alpha  occ. eigenvalues --   -0.56819  -0.52279  -0.49521  -0.48441  -0.47315
 Alpha  occ. eigenvalues --   -0.46553  -0.46098  -0.45425  -0.45224  -0.44640
 Alpha  occ. eigenvalues --   -0.44090  -0.43156  -0.41380  -0.41369  -0.41081
 Alpha  occ. eigenvalues --   -0.40294  -0.38651  -0.37952  -0.37649  -0.36524
 Alpha  occ. eigenvalues --   -0.35889  -0.35643  -0.35153  -0.34599  -0.33884
 Alpha  occ. eigenvalues --   -0.32948  -0.31752  -0.31252  -0.30554  -0.27610
 Alpha  occ. eigenvalues --   -0.25998  -0.23857
 Alpha virt. eigenvalues --   -0.05225  -0.02559  -0.01857   0.03664   0.05733
 Alpha virt. eigenvalues --    0.07267   0.07706   0.09988   0.10771   0.11076
 Alpha virt. eigenvalues --    0.12139   0.12282   0.12960   0.13487   0.14812

 Mulliken charges:
               1
     1  O   -0.455577
     2  C    0.453503
     3  C   -0.167630
     4  C   -0.290407
     5  C   -0.281164
     6  C   -0.097840
     7  C   -0.281164
     8  C   -0.167630
     9  C   -0.290408
    10  C   -0.005896
    11  C    0.177743
    12  C   -0.194912
    13  C   -0.142804
    14  C    0.133337
    15  C    0.236041
    16  N   -0.477659
    17  C   -0.142077
    18  C   -0.190104
    19  C   -0.296158
    20  H    0.147820
    21  H    0.147032
    22  H    0.149123
    23  H    0.148264
    24  H    0.140566
    25  H    0.130668
    26  H    0.148264
    27  H    0.140566
    28  H    0.147820
    29  H    0.149123
    30  H    0.147032
    31  H    0.143650
    32  H    0.158586
    33  H    0.159861
    34  H    0.144611
    35  H    0.138910
    36  H    0.138910
 Sum of Mulliken charges =  -0.00000

 Dipole moment (field-independent basis, Debye):
    X=             -3.4628    Y=              2.9245    Z=              0.0000  Tot=              4.5325
 Quadrupole moment (field-independent basis, Debye-Ang):
   XX=           -160.0928   YY=           -109.6033   ZZ=           -109.2720
   XY=             -9.0533   XZ=             -0.0000   YZ=             -0.0000

  Exact polarizability: 251.493   0.060 157.230   0.000  -0.000 115.423
 Approx polarizability: 347.943   6.990 270.886   0.000  -0.000 177.012

                      1                      2                      3
                      A                      A                      A
 Frequencies --     44.9052                57.9979                71.6271
 Red. masses --      5.1915                 4.5070                10.7517
 Frc consts  --      0.0062                 0.0089                 0.0325
 IR Inten    --      1.9233                 0.6422                 4.4885

                      4                      5                      6
                      A                      A                      A
 Frequencies --    116.1855               145.9009               186.3437
 Red. masses --      7.5114                 5.2913                 4.8028
 Frc consts  --      0.0597                 0.0664                 0.0983
 IR Inten    --      2.1943                 1.5344                 2.9341

                      7                      8                      9
                      A                      A                      A
 Frequencies --    237.0785               261.3262               279.7413
 Red. masses --      6.7532                 2.9892                 2.3439
 Frc consts  --      0.2236                 0.1203                 0.1081
 IR Inten    --      0.2145                 1.2366                 0.7492

                     10                     11                     12
                      A                      A                      A
 Frequencies --    316.1295               327.0663               376.0183
 Red. masses --      3.3854                 3.6307                 3.8941
 Frc consts  --      0.1993                 0.2288                 0.3244
 IR Inten    --      0.0666                 1.9083                 1.2652

                     13                     14                     15
                      A                      A                      A
 Frequencies --    398.6305               413.2325               421.2388
 Red. masses --      4.8899                 3.0220                 2.3132
 Frc consts  --      0.4578                 0.3040                 0.2418
 IR Inten    --      0.0628                 0.0063                 0.3047

                     16                     17                     18
                      A                      A                      A
 Frequencies --    441.1806               449.5714               462.5239
 Red. masses --      1.9701                 2.2429                 4.4160
 Frc consts  --      0.2259                 0.2671                 0.5566
 IR Inten    --      0.0673                 0.4164                10.4615

                     19                     20                     21
                      A                      A                      A
 Frequencies --    507.5085               520.3692               561.8957
 Red. masses --      4.8499                 6.4089                 7.2606
 Frc consts  --      0.7360                 1.0225                 1.3506
 IR Inten    --      1.3855                 1.0630                 0.0374

                     22                     23                     24
                      A                      A                      A
 Frequencies --    586.1984               614.7999               636.9270
 Red. masses --      2.8885                 5.4801                 3.4618
 Frc consts  --      0.5848                 1.2204                 0.8274
 IR Inten    --     15.4191                 0.0227                 2.9771

                     25                     26                     27
                      A                      A                      A
 Frequencies --    663.4493               671.8903               715.3438
 Red. masses --      7.3211                 4.9458                 3.9449
 Frc consts  --      1.8986                 1.3155                 1.1894
 IR Inten    --      0.1053                 0.4820                 3.5442

                     28                     29                     30
                      A                      A                      A
 Frequencies --    749.1145               782.4926               791.4056
 Red. masses --      4.3440                 4.8071                 4.2613
 Frc consts  --      1.4363                 1.7342                 1.5725
 IR Inten    --      0.0176                 0.4094                 0.2960

                     31                     32                     33
                      A                      A                      A
 Frequencies --    806.8998               843.3265               853.9308
 Red. masses --      2.9615                 1.8291                 1.2633
 Frc consts  --      1.1361                 0.7664                 0.5428
 IR Inten    --      0.5835                27.4750                 0.1880

                     34                     35                     36
                      A                      A                      A
 Frequencies --    869.7595               869.8954               901.4178
 Red. masses --      2.1622                 3.6700                 1.5775
 Frc consts  --      0.9637                 1.6363                 0.7552
 IR Inten    --      5.1188                 1.4639                 0.0461

                     37                     38                     39
                      A                      A                      A
 Frequencies --    902.1765               918.6732               953.7555
 Red. masses --      1.5994                 2.3823                 2.0174
 Frc consts  --      0.7670                 1.1846                 1.0812
 IR Inten    --      1.9981                 6.4383                 0.4428

                     40                     41                     42
                      A                      A                      A
 Frequencies --    973.3388               978.0156               981.8642
 Red. masses --      1.3593                 2.2772                 1.3667
 Frc consts  --      0.7587                 1.2834                 0.7763
 IR Inten    --      0.0048                 0.9813                 0.1641

                     43                     44                     45
                      A                      A                      A
 Frequencies --    985.7284              1017.5668              1033.4493
 Red. masses --      2.2153                 2.0740                 4.5811
 Frc consts  --      1.2682                 1.2653                 2.8827
 IR Inten    --      1.8195                 3.1416                10.8692

                     46                     47                     48
                      A                      A                      A
 Frequencies --   1049.2779              1051.7663              1072.9034
 Red. masses --      2.5729                 2.7865                 2.0418
 Frc consts  --      1.6690                 1.8162                 1.3848
 IR Inten    --      0.6710                 0.2445                 1.1658

                     49                     50                     51
                      A                      A                      A
 Frequencies --   1078.8091              1098.5787              1121.7716
 Red. masses --      1.7915                 1.7589                 1.4991
 Frc consts  --      1.2284                 1.2507                 1.1115
 IR Inten    --     30.1410                 0.8824                 0.8259

                     52                     53                     54
                      A                      A                      A
 Frequencies --   1141.3316              1155.2633              1165.0922
 Red. masses --      1.3226                 1.3874                 1.0938
 Frc consts  --      1.0151                 1.0910                 0.8748
 IR Inten    --      0.1072                 2.4938                 0.0073

                     55                     56                     57
                      A                      A                      A
 Frequencies --   1205.6174              1217.6378              1232.5802
 Red. masses --      1.3215                 1.7461                 2.3415
 Frc consts  --      1.1317                 1.5253                 2.0959
 IR Inten    --      2.4363                 0.2870                 0.1789

                     58                     59                     60
                      A                      A                      A
 Frequencies --   1239.9783              1249.6891              1269.4789
 Red. masses --      1.9306                 1.9322                 1.5297
 Frc consts  --      1.7489                 1.7779                 1.4524
 IR Inten    --      8.5781                 0.7888                 5.5984

                     61                     62                     63
                      A                      A                      A
 Frequencies --   1275.3532              1298.1893              1304.2081
 Red. masses --      1.6879                 1.3399                 1.6401
 Frc consts  --      1.6175                 1.3305                 1.6437
 IR Inten    --      0.4583                 0.0091                 0.0067

                     64                     65                     66
                      A                      A                      A
 Frequencies --   1331.6838              1333.5857              1344.6470
 Red. masses --      1.5679                 3.3283                 2.2463
 Frc consts  --      1.6383                 3.4875                 2.3930
 IR Inten    --      5.4312                 1.2100                 9.7735

                     67                     68                     69
                      A                      A                      A
 Frequencies --   1350.4654              1359.8739              1360.4548
 Red. masses --      1.3832                 1.4111                 1.4560
 Frc consts  --      1.4863                 1.5374                 1.5878
 IR Inten    --      1.3442                 0.9546                 2.0399

                     70                     71                     72
                      A                      A                      A
 Frequencies --   1381.6153              1388.9956              1396.7341
 Red. masses --      1.6695                 1.5266                 1.4944
 Frc consts  --      1.8777                 1.7353                 1.7177
 IR Inten    --      2.6479                 0.1168                 1.7107

                     73                     74                     75
                      A                      A                      A
 Frequencies --   1398.3984              1413.5111              1453.0357
 Red. masses --      1.5234                 1.4519                 2.7093
 Frc consts  --      1.7552                 1.7092                 3.3703
 IR Inten    --      1.8961                 0.2348                 7.2058

                     76                     77                     78
                      A                      A                      A
 Frequencies --   1508.4832              1515.9213              1521.9450
 Red. masses --      1.0838                 1.0928                 1.0917
 Frc consts  --      1.4530                 1.4796                 1.4899
 IR Inten    --      0.0231                 3.6521                11.0583

                     79                     80                     81
                      A                      A                      A
 Frequencies --   1524.2139              1543.2751              1557.2274
 Red. masses --      1.0961                 1.0931                 2.2569
 Frc consts  --      1.5003                 1.5339                 3.2246
 IR Inten    --      7.6115                 0.4209                20.7837

                     82                     83                     84
                      A                      A                      A
 Frequencies --   1607.3221              1666.8022              1822.4421
 Red. masses --      6.0226                 5.5673                11.2516
 Frc consts  --      9.1672                 9.1130                22.0177
 IR Inten    --      0.6960                28.7767               235.2279

                     85                     86                     87
                      A                      A                      A
 Frequencies --   2347.9932              3028.8552              3035.6930
 Red. masses --     12.6812                 1.0601                 1.0647
 Frc consts  --     41.1910                 5.7298                 5.7807
 IR Inten    --     44.6454                20.3685                11.4608

                     88                     89                     90
                      A                      A                      A
 Frequencies --   3036.1154              3042.2401              3045.6762
 Red. masses --      1.0600                 1.0613                 1.0634
 Frc consts  --      5.7569                 5.7874                 5.8117
 IR Inten    --     28.1471                36.0164                28.8921

                     91                     92                     93
                      A                      A                      A
 Frequencies --   3057.5845              3070.6260              3075.7008
 Red. masses --      1.0807                 1.1045                 1.1049
 Frc consts  --      5.9527                 6.1357                 6.1584
 IR Inten    --     72.3977                14.2632                24.8201

                     94                     95                     96
                      A                      A                      A
 Frequencies --   3078.8297              3085.8026              3088.8185
 Red. masses --      1.1038                 1.1026                 1.1014
 Frc consts  --      6.1645                 6.1857                 6.1913
 IR Inten    --     57.3662                21.6450                27.2857

                     97                     98                     99
                      A                      A                      A
 Frequencies --   3091.3619              3093.2031              3199.4190
 Red. masses --      1.0869                 1.0876                 1.0875
 Frc consts  --      6.1196                 6.1309                 6.5589
 IR Inten    --     27.8020                27.9753                 9.1391

                    100                    101                    102
                      A                      A                      A
 Frequencies --   3211.4983              3219.2470              3232.4676
 Red. masses --      1.0894                 1.0945                 1.0923
 Frc consts  --      6.6196                 6.6828                 6.7245
 IR Inten    --      3.0612                 6.5122                 6.1844

 - Thermochemistry -
 -------------------
 Temperature   298.150 Kelvin.  Pressure   1.00000 Atm.
 Atom     1 has atomic number  8 and mass  15.99491

 Molecular mass:   251.13101 amu.
 Principal axes and moments of inertia in atomic units:
                           1         2         3
     Eigenvalues --  1663.253899108.025829691.46085
           X            0.99996  -0.00853  -0.00000
           Y            0.00853   0.99996  -0.00000
           Z            0.00000   0.00000   1.00000
 This molecule is an asymmetric top.
 Rotational symmetry number  1.
 Warning -- assumption of classical behavior for rotation
           may cause significant error
 Rotational temperatures (Kelvin)      0.05207     0.00951     0.00894
 Rotational constants (GHZ):           1.08507     0.19815     0.18622
 Zero-point vibrational energy     799985.8 (Joules/Mol)
                                  191.20120 (Kcal/Mol)
 Warning -- explicit consideration of  23 degrees of freedom as
           vibrations may cause significant error
 Vibrational temperatures:     64.61    83.45   103.06   167.17   209.92
          (Kelvin)            268.11   341.10   375.99   402.49   454.84
                              470.58   541.01   573.54   594.55   606.07
                              634.76   646.83   665.47   730.19   748.70
                              808.44   843.41   884.56   916.40   954.56
                              966.70  1029.22  1077.81  1125.83  1138.66
                             1160.95  1213.36  1228.62  1251.39  1251.59
                             1296.94  1298.03  1321.77  1372.24  1400.42
                             1407.15  1412.68  1418.24  1464.05  1486.90
                             1509.68  1513.26  1543.67  1552.17  1580.61
                             1613.98  1642.12  1662.17  1676.31  1734.61
                             1751.91  1773.41  1784.05  1798.02  1826.50
                             1834.95  1867.80  1876.46  1916.00  1918.73
                             1934.65  1943.02  1956.56  1957.39  1987.84
                             1998.45  2009.59  2011.98  2033.73  2090.59
                             2170.37  2181.07  2189.74  2193.00  2220.43
                             2240.50  2312.58  2398.16  2622.09  3378.24
                             4357.85  4367.69  4368.29  4377.11  4382.05
                             4399.18  4417.95  4425.25  4429.75  4439.78
                             4444.12  4447.78  4450.43  4603.25  4620.63
                             4631.78  4650.80

 Zero-point correction=                           0.304699 (Hartree/Particle)
 Thermal correction to Energy=                    0.319074
 Thermal correction to Enthalpy=                  0.320019
 Thermal correction to Gibbs Free Energy=         0.263330
 Sum of electronic and zero-point Energies=           -787.722289
 Sum of electronic and thermal Energies=              -787.707914
 Sum of electronic and thermal Enthalpies=            -787.706969
 Sum of electronic and thermal Free Energies=         -787.763658

                     E (Thermal)             CV                S
                      KCal/Mol        Cal/Mol-Kelvin    Cal/Mol-Kelvin
 Total                  200.222             60.307            119.312
 Electronic               0.000              0.000              0.000
 Translational            0.889              2.981             42.463
 Rotational               0.889              2.981             33.351
 Vibrational            198.445             54.346             43.498
 Vibration     1          0.595              1.979              5.030
 Vibration     2          0.596              1.974              4.524
 Vibration     3          0.598              1.968              4.108
 Vibration     4          0.608              1.936              3.163
 Vibration     5          0.617              1.907              2.725
 Vibration     6          0.632              1.859              2.264
 Vibration     7          0.656              1.784              1.825
 Vibration     8          0.669              1.744              1.653
 Vibration     9          0.680              1.711              1.535
 Vibration    10          0.703              1.643              1.330
 Vibration    11          0.711              1.621              1.275
 Vibration    12          0.747              1.521              1.055
 Vibration    13          0.765              1.473              0.968
 Vibration    14          0.777              1.442              0.915
 Vibration    15          0.784              1.424              0.888
 Vibration    16          0.801              1.380              0.823
 Vibration    17          0.808              1.362              0.797
 Vibration    18          0.820              1.333              0.759
 Vibration    19          0.863              1.233              0.640
 Vibration    20          0.875              1.205              0.609
 Vibration    21          0.918              1.114              0.520
 Vibration    22          0.943              1.061              0.474
 Vibration    23          0.974              1.001              0.425

 Normal termination of Gaussian 16 at Fri Feb 23 22:20:54 2024.
