 Gaussian 16, Revision A.03,
 Gaussian 16:  EM64M-G16RevA.03 25-Dec-2016

 ---------------------
 # freq b3lyp/6-31g(d)
 ---------------------

 ---------
 good luck
 ---------
 Symbolic Z-matrix:
 Charge =  0 Multiplicity = 1

                         Standard orientation:
 ---------------------------------------------------------------------
 Center     Atomic      Atomic             Coordinates (Angstroms)
 Number     Number       Type             X           Y           Z
 ---------------------------------------------------------------------
      1          8           0        2.384001    0.203088   -0.579933
      2          6           0        1.252752   -0.024953   -0.200720
      3          6           0        0.384528   -1.174224   -0.586257
      4          6           0       -1.091707   -0.789736   -0.755720
      5          6           0       -1.493033    0.676819   -0.885560
      6          6           0       -0.591040    1.620782   -0.038183
      7          6           0        0.429795    0.807468    0.796314
      8          6           0       -0.306109   -0.276674    1.612767
      9          6           0       -0.626818   -1.335835    0.555199
     10          1           0        0.801435   -2.004699   -1.145579
     11          1           0       -1.652193   -1.477210   -1.386432
     12          1           0       -1.456619    0.964568   -1.942878
     13          1           0       -2.541747    0.776221   -0.578216
     14          1           0       -0.050077    2.317829   -0.687677
     15          1           0       -1.199002    2.229701    0.641236
     16          1           0        1.069697    1.465225    1.388839
     17          1           0        0.350628   -0.697554    2.383864
     18          1           0       -1.204923    0.107855    2.111823
     19          1           0       -0.939419   -2.328518    0.867444
 ---------------------------------------------------------------------

 SCF Done:  E(RB3LYP) =  -386.067613085     A.U. after   14 cycles

 The electronic state is 1-A.
 Alpha  occ. eigenvalues --  -19.12659 -10.26254 -10.20890 -10.20599 -10.19627
 Alpha  occ. eigenvalues --  -10.19504 -10.19499 -10.19474 -10.19337  -1.02579
 Alpha  occ. eigenvalues --   -0.90369  -0.78822  -0.75570  -0.68870  -0.62875
 Alpha  occ. eigenvalues --   -0.60470  -0.55424  -0.52417  -0.48981  -0.46969
 Alpha  occ. eigenvalues --   -0.45125  -0.43211  -0.41180  -0.39943  -0.39405
 Alpha  occ. eigenvalues --   -0.38891  -0.36991  -0.36111  -0.33847  -0.32084
 Alpha  occ. eigenvalues --   -0.28610  -0.27979  -0.22815
 Alpha virt. eigenvalues --   -0.00491   0.07803   0.10106   0.11545   0.13404
 Alpha virt. eigenvalues --    0.13883   0.14830   0.15437   0.16384   0.17849
 Alpha virt. eigenvalues --    0.18075   0.19336   0.19768   0.21907   0.22278

 Mulliken charges:
               1
     1  O   -0.475015
     2  C    0.486613
     3  C   -0.209434
     4  C   -0.118555
     5  C   -0.270724
     6  C   -0.282181
     7  C   -0.222698
     8  C   -0.250138
     9  C   -0.144255
    10  H    0.153216
    11  H    0.147876
    12  H    0.150487
    13  H    0.145478
    14  H    0.158576
    15  H    0.146305
    16  H    0.147353
    17  H    0.149867
    18  H    0.138965
    19  H    0.148264
 Sum of Mulliken charges =  -0.00000

 Dipole moment (field-independent basis, Debye):
    X=             -3.3092    Y=             -0.5324    Z=              0.8544  Tot=              3.4589
 Quadrupole moment (field-independent basis, Debye-Ang):
   XX=            -61.2503   YY=            -50.0104   ZZ=            -51.9396
   XY=             -0.8085   XZ=              3.0290   YZ=              0.7443

  Exact polarizability:  80.806   1.335  73.866  -1.159   1.181  71.178
 Approx polarizability: 128.424   4.668 102.928  -7.499   0.423 104.307

                      1                      2                      3
                      A                      A                      A
 Frequencies --    108.8741               158.3900               322.3259
 Red. masses --      2.4682                 2.8698                 2.5354
 Frc consts  --      0.0172                 0.0424                 0.1552
 IR Inten    --      1.3415                 1.8060                 0.8411

                      4                      5                      6
                      A                      A                      A
 Frequencies --    392.0578               454.5042               473.9824
 Red. masses --      2.1758                 4.3829                 5.7472
 Frc consts  --      0.1970                 0.5334                 0.7607
 IR Inten    --      0.1075                 7.4176                 1.4463

                      7                      8                      9
                      A                      A                      A
 Frequencies --    553.2013               618.6816               701.7071
 Red. masses --      5.7041                 4.4256                 4.6557
 Frc consts  --      1.0285                 0.9981                 1.3507
 IR Inten    --      2.4958                 1.0941                 2.6588

                     10                     11                     12
                      A                      A                      A
 Frequencies --    752.4264               785.1247               810.6822
 Red. masses --      2.6429                 3.6968                 2.0413
 Frc consts  --      0.8816                 1.3426                 0.7904
 IR Inten    --      6.5296                 0.5176                 1.8949

                     13                     14                     15
                      A                      A                      A
 Frequencies --    828.6847               851.4479               878.5754
 Red. masses --      1.7380                 1.9290                 2.5898
 Frc consts  --      0.7032                 0.8239                 1.1778
 IR Inten    --      7.5551                 4.5139                17.6821

                     16                     17                     18
                      A                      A                      A
 Frequencies --    905.9559               937.0682               981.2049
 Red. masses --      2.0180                 2.2410                 1.7337
 Frc consts  --      0.9759                 1.1594                 0.9834
 IR Inten    --      1.0811                 9.3402                12.0215

                     19                     20                     21
                      A                      A                      A
 Frequencies --   1017.4005              1049.4872              1050.7850
 Red. masses --      1.8713                 1.9561                 2.1059
 Frc consts  --      1.1412                 1.2694                 1.3700
 IR Inten    --      4.5607                 1.1943                 1.4130

                     22                     23                     24
                      A                      A                      A
 Frequencies --   1073.0800              1087.3114              1115.3946
 Red. masses --      2.1519                 1.4519                 1.3423
 Frc consts  --      1.4600                 1.0114                 0.9839
 IR Inten    --      3.1625                 0.1037                 1.5945

                     25                     26                     27
                      A                      A                      A
 Frequencies --   1158.6483              1171.8706              1203.1169
 Red. masses --      1.2624                 1.3967                 1.2736
 Frc consts  --      0.9985                 1.1301                 1.0861
 IR Inten    --      7.4462                 8.5152                 2.4795

                     28                     29                     30
                      A                      A                      A
 Frequencies --   1222.3596              1255.9712              1279.3738
 Red. masses --      1.5854                 1.8183                 1.2483
 Frc consts  --      1.3957                 1.6900                 1.2038
 IR Inten    --     11.4838                 3.6492                 2.7152

                     31                     32                     33
                      A                      A                      A
 Frequencies --   1316.8095              1331.7528              1345.0238
 Red. masses --      1.3594                 1.8112                 1.4008
 Frc consts  --      1.3888                 1.8926                 1.4930
 IR Inten    --      1.3455                11.1414                 3.2390

                     34                     35                     36
                      A                      A                      A
 Frequencies --   1361.9812              1368.7447              1393.3939
 Red. masses --      1.7379                 1.7466                 1.4651
 Frc consts  --      1.8994                 1.9279                 1.6760
 IR Inten    --      3.3866                 0.3363                 1.5086

                     37                     38                     39
                      A                      A                      A
 Frequencies --   1447.6727              1518.4009              1527.7889
 Red. masses --      2.2738                 1.0794                 1.1013
 Frc consts  --      2.8076                 1.4663                 1.5145
 IR Inten    --      2.0935                 0.8835                 1.0026

                     40                     41                     42
                      A                      A                      A
 Frequencies --   1542.6391              1834.4601              3043.8420
 Red. masses --      1.0910                11.7288                 1.0613
 Frc consts  --      1.5297                23.2552                 5.7935
 IR Inten    --      1.3382               284.7083                36.6723

                     43                     44                     45
                      A                      A                      A
 Frequencies --   3046.4904              3059.2664              3074.3721
 Red. masses --      1.0595                 1.0614                 1.1043
 Frc consts  --      5.7937                 5.8527                 6.1498
 IR Inten    --     33.1265                46.1510                 5.5641

                     46                     47                     48
                      A                      A                      A
 Frequencies --   3085.1583              3101.2542              3122.2243
 Red. masses --      1.1061                 1.1048                 1.0880
 Frc consts  --      6.2028                 6.2603                 6.2487
 IR Inten    --     27.9189                39.7219                23.6690

                     49                     50                     51
                      A                      A                      A
 Frequencies --   3158.2002              3184.3579              3215.6291
 Red. masses --      1.0888                 1.0913                 1.0930
 Frc consts  --      6.3986                 6.5201                 6.6590
 IR Inten    --     15.8675                19.8271                 8.8054

 - Thermochemistry -
 -------------------
 Temperature   298.150 Kelvin.  Pressure   1.00000 Atm.
 Atom     1 has atomic number  8 and mass  15.99491

 Molecular mass:   122.07317 amu.
 Principal axes and moments of inertia in atomic units:
                           1         2         3
     Eigenvalues --   742.68165 969.942101071.09000
           X            0.99864  -0.03237   0.04079
           Y            0.03186   0.99941   0.01301
           Z           -0.04119  -0.01169   0.99908
 This molecule is an asymmetric top.
 Rotational symmetry number  1.
 Warning -- assumption of classical behavior for rotation
           may cause significant error
 Rotational temperatures (Kelvin)      0.11662     0.08930     0.08087
 Rotational constants (GHZ):           2.43003     1.86067     1.68496
 Zero-point vibrational energy     432325.4 (Joules/Mol)
                                  103.32824 (Kcal/Mol)
 Warning -- explicit consideration of   8 degrees of freedom as
           vibrations may cause significant error
 Vibrational temperatures:    156.65   227.89   463.76   564.08   653.93
          (Kelvin)            681.95   795.93   890.14  1009.60  1082.57
                             1129.62  1166.39  1192.29  1225.04  1264.07
                             1303.47  1348.23  1411.73  1463.81  1509.98
                             1511.85  1543.92  1564.40  1604.80  1667.04
                             1686.06  1731.02  1758.70  1807.06  1840.73
                             1894.60  1916.10  1935.19  1959.59  1969.32
                             2004.78  2082.88  2184.64  2198.15  2219.51
                             2639.38  4379.41  4383.22  4401.60  4423.34
                             4438.85  4462.01  4492.18  4543.95  4581.58
                             4626.57

 Zero-point correction=                           0.164664 (Hartree/Particle)
 Thermal correction to Energy=                    0.171435
 Thermal correction to Enthalpy=                  0.172379
 Thermal correction to Gibbs Free Energy=         0.133537
 Sum of electronic and zero-point Energies=           -385.902949
 Sum of electronic and thermal Energies=              -385.896178
 Sum of electronic and thermal Enthalpies=            -385.895234
 Sum of electronic and thermal Free Energies=         -385.934076

                     E (Thermal)             CV                S
                      KCal/Mol        Cal/Mol-Kelvin    Cal/Mol-Kelvin
 Total                  107.577             27.727             81.749
 Electronic               0.000              0.000              0.000
 Translational            0.889              2.981             40.313
 Rotational               0.889              2.981             28.136
 Vibrational            105.800             21.765             13.301
 Vibration     1          0.606              1.942              3.289
 Vibration     2          0.621              1.893              2.569
 Vibration     3          0.707              1.631              1.298
 Vibration     4          0.759              1.487              0.992
 Vibration     5          0.813              1.351              0.782
 Vibration     6          0.831              1.308              0.726
 Vibration     7          0.909              1.133              0.538
 Vibration     8          0.979              0.992              0.419

 Normal termination of Gaussian 16 at Wed Feb 21 18:21:56 2024.
