 Gaussian 16, Revision A.03,
 Gaussian 16:  EM64M-G16RevA.03 25-Dec-2016

 ---------------------
 # freq b3lyp/6-31g(d)
 ---------------------

 ---------
 good luck
 ---------
 Symbolic Z-matrix:
 Charge =  0 Multiplicity = 1

                         Standard orientation:
 ---------------------------------------------------------------------
 Center     Atomic      Atomic             Coordinates (Angstroms)
 Number     Number       Type             X           Y           Z
 ---------------------------------------------------------------------
      1          8           0       -2.758707   -0.691105   -1.157264
      2          6           0       -1.769189   -0.424387   -0.519431
      3          6           0       -1.133382    0.927387   -0.164132
      4          6           0        0.255076    0.701017   -0.823094
      5          6           0        1.358793    1.671444   -0.488213
      6          6           0        1.217725    2.896556    0.021192
      7          6           0        0.566191   -0.842941   -0.517798
      8          6           0        1.826607   -1.111433    0.255553
      9          6           0        2.783105   -1.956152   -0.135212
     10          6           0       -0.747448   -1.328831    0.180987
     11          6           0       -0.858598   -0.753733    1.610723
     12          6           0       -1.037954    0.789686    1.377979
     13          1           0       -1.674771    1.801771   -0.527750
     14          1           0        0.111041    0.768855   -1.912125
     15          1           0        2.360061    1.325515   -0.746770
     16          1           0        0.248876    3.308514    0.292051
     17          1           0        2.076829    3.543464    0.177186
     18          1           0        0.647111   -1.371669   -1.474391
     19          1           0        1.956594   -0.570556    1.192385
     20          1           0        3.674985   -2.126871    0.461684
     21          1           0        2.709370   -2.512539   -1.067799
     22          1           0       -0.924985   -2.401629    0.094851
     23          1           0        0.010764   -0.990800    2.229298
     24          1           0       -1.735347   -1.178357    2.111586
     25          1           0       -0.202939    1.365390    1.783303
     26          1           0       -1.953480    1.156074    1.853267
 ---------------------------------------------------------------------

 SCF Done:  E(RB3LYP) =  -502.751109919     A.U. after   14 cycles

 The electronic state is 1-A.
 Alpha  occ. eigenvalues --  -19.14354 -10.26989 -10.20822 -10.20736 -10.19681
 Alpha  occ. eigenvalues --  -10.19602 -10.19532 -10.19477 -10.19387 -10.19203
 Alpha  occ. eigenvalues --  -10.18657 -10.18348  -1.04158  -0.88134  -0.79330
 Alpha  occ. eigenvalues --   -0.78440  -0.73219  -0.72574  -0.66694  -0.63015
 Alpha  occ. eigenvalues --   -0.57855  -0.56763  -0.53612  -0.52666  -0.50268
 Alpha  occ. eigenvalues --   -0.47431  -0.46331  -0.44978  -0.43950  -0.42117
 Alpha  occ. eigenvalues --   -0.41192  -0.40152  -0.39584  -0.38388  -0.36772
 Alpha  occ. eigenvalues --   -0.36374  -0.35404  -0.34595  -0.33701  -0.33379
 Alpha  occ. eigenvalues --   -0.30887  -0.26706  -0.25415  -0.23031
 Alpha virt. eigenvalues --   -0.01465   0.00993   0.01816   0.07858   0.10037
 Alpha virt. eigenvalues --    0.11703   0.12124   0.12430   0.13385   0.14602
 Alpha virt. eigenvalues --    0.15461   0.15926   0.16830   0.17728   0.19247

 Mulliken charges:
               1
     1  O   -0.439914
     2  C    0.423784
     3  C   -0.174902
     4  C   -0.153263
     5  C   -0.064799
     6  C   -0.344542
     7  C   -0.162263
     8  C   -0.038111
     9  C   -0.351995
    10  C   -0.163508
    11  C   -0.292282
    12  C   -0.289654
    13  H    0.144416
    14  H    0.162288
    15  H    0.139317
    16  H    0.142904
    17  H    0.142111
    18  H    0.142735
    19  H    0.135972
    20  H    0.143405
    21  H    0.140909
    22  H    0.144995
    23  H    0.150471
    24  H    0.153826
    25  H    0.157108
    26  H    0.150990
 Sum of Mulliken charges =  -0.00000

 Dipole moment (field-independent basis, Debye):
    X=              2.2892    Y=              0.5331    Z=              1.3738  Tot=              2.7225
 Quadrupole moment (field-independent basis, Debye-Ang):
   XX=            -78.5871   YY=            -70.6642   ZZ=            -72.0940
   XY=             -3.3202   XZ=             -5.1259   YZ=              0.1549

  Exact polarizability: 121.219  -8.326 117.779   0.537  10.253  88.219
 Approx polarizability: 172.675 -13.535 168.049   5.130  22.686 136.875

                      1                      2                      3
                      A                      A                      A
 Frequencies --     62.3786                82.1750               108.3828
 Red. masses --      3.2864                 2.9745                 3.1248
 Frc consts  --      0.0075                 0.0118                 0.0216
 IR Inten    --      0.3578                 0.1132                 0.7761

                      4                      5                      6
                      A                      A                      A
 Frequencies --    126.6923               190.1612               229.0118
 Red. masses --      4.7007                 2.9424                 2.4087
 Frc consts  --      0.0445                 0.0627                 0.0744
 IR Inten    --      2.5065                 0.2388                 0.0941

                      7                      8                      9
                      A                      A                      A
 Frequencies --    245.4211               293.2006               357.8748
 Red. masses --      2.2681                 1.9489                 2.8514
 Frc consts  --      0.0805                 0.0987                 0.2152
 IR Inten    --      0.7544                 0.0728                 0.9972

                     10                     11                     12
                      A                      A                      A
 Frequencies --    378.0999               407.9637               464.9306
 Red. masses --      2.9998                 3.1818                 3.5225
 Frc consts  --      0.2527                 0.3120                 0.4486
 IR Inten    --      2.4368                 2.2863                 6.6474

                     13                     14                     15
                      A                      A                      A
 Frequencies --    526.8220               553.0603               630.1569
 Red. masses --      2.3638                 3.3326                 2.7742
 Frc consts  --      0.3865                 0.6006                 0.6491
 IR Inten    --      2.4745                 1.1809                 3.9561

                     16                     17                     18
                      A                      A                      A
 Frequencies --    645.3785               718.0033               747.5233
 Red. masses --      2.5378                 2.3910                 3.3396
 Frc consts  --      0.6228                 0.7262                 1.0995
 IR Inten    --      0.7341                 7.5374                 3.9071

                     19                     20                     21
                      A                      A                      A
 Frequencies --    772.6970               793.1220               828.4101
 Red. masses --      2.4954                 2.9352                 2.4794
 Frc consts  --      0.8778                 1.0879                 1.0025
 IR Inten    --      1.0839                 4.1691                 6.6714

                     22                     23                     24
                      A                      A                      A
 Frequencies --    862.0037               880.9663               888.3929
 Red. masses --      2.3905                 1.9423                 3.8371
 Frc consts  --      1.0465                 0.8881                 1.7843
 IR Inten    --      2.5490                 0.2315                 3.3637

                     25                     26                     27
                      A                      A                      A
 Frequencies --    939.5351               946.1193               962.4254
 Red. masses --      1.3551                 1.3563                 1.9059
 Frc consts  --      0.7048                 0.7153                 1.0401
 IR Inten    --     32.7766                36.0077                 3.5960

                     28                     29                     30
                      A                      A                      A
 Frequencies --    983.4379              1015.7319              1032.7858
 Red. masses --      2.1400                 1.6994                 1.5697
 Frc consts  --      1.2194                 1.0330                 0.9865
 IR Inten    --      0.0951                 0.9559                 5.5990

                     31                     32                     33
                      A                      A                      A
 Frequencies --   1037.1721              1041.1400              1052.5549
 Red. masses --      1.6470                 1.3926                 1.5421
 Frc consts  --      1.0439                 0.8894                 1.0066
 IR Inten    --      1.7302                 2.8993                24.3800

                     34                     35                     36
                      A                      A                      A
 Frequencies --   1058.7384              1122.7257              1149.0128
 Red. masses --      1.9369                 1.7795                 1.1756
 Frc consts  --      1.2792                 1.3216                 0.9144
 IR Inten    --      2.9650                 5.3832                 2.1919

                     37                     38                     39
                      A                      A                      A
 Frequencies --   1158.4992              1168.5119              1184.9214
 Red. masses --      2.9427                 1.7952                 1.4724
 Frc consts  --      2.3270                 1.4442                 1.2180
 IR Inten    --     48.0497                 0.7498                 4.9042

                     40                     41                     42
                      A                      A                      A
 Frequencies --   1198.4539              1262.1463              1270.7866
 Red. masses --      1.4812                 1.3880                 1.4612
 Frc consts  --      1.2535                 1.3028                 1.3903
 IR Inten    --      0.7260                 0.6292                 1.0685

                     43                     44                     45
                      A                      A                      A
 Frequencies --   1289.2587              1314.8001              1318.8900
 Red. masses --      1.3199                 1.3913                 1.3285
 Frc consts  --      1.2927                 1.4170                 1.3615
 IR Inten    --      0.4116                 1.1509                 0.2892

                     46                     47                     48
                      A                      A                      A
 Frequencies --   1332.7551              1341.8833              1349.2544
 Red. masses --      1.2907                 1.3100                 1.4741
 Frc consts  --      1.3507                 1.3898                 1.5811
 IR Inten    --      4.2048                 0.3529                 5.6713

                     49                     50                     51
                      A                      A                      A
 Frequencies --   1358.0002              1362.6601              1371.1681
 Red. masses --      1.3867                 1.2721                 1.5205
 Frc consts  --      1.5067                 1.3917                 1.6842
 IR Inten    --      1.3199                 3.8262                 3.1808

                     52                     53                     54
                      A                      A                      A
 Frequencies --   1473.2047              1482.4001              1523.4498
 Red. masses --      1.2061                 1.2159                 1.0777
 Frc consts  --      1.5423                 1.5743                 1.4736
 IR Inten    --      2.6604                 4.5280                 0.2728

                     55                     56                     57
                      A                      A                      A
 Frequencies --   1543.6714              1723.0177              1723.8175
 Red. masses --      1.0930                 4.4226                 4.4058
 Frc consts  --      1.5345                 7.7359                 7.7136
 IR Inten    --      5.6237                10.0287                 3.9934

                     58                     59                     60
                      A                      A                      A
 Frequencies --   1872.3042              3003.9074              3060.9890
 Red. masses --     12.1422                 1.0836                 1.0853
 Frc consts  --     25.0785                 5.7612                 5.9915
 IR Inten    --    299.1849                14.4546                22.8269

                     61                     62                     63
                      A                      A                      A
 Frequencies --   3071.1746              3083.7545              3115.9453
 Red. masses --      1.0652                 1.0633                 1.1016
 Frc consts  --      5.9198                 5.9578                 6.3018
 IR Inten    --     20.2694                39.8561                 6.5006

                     64                     65                     66
                      A                      A                      A
 Frequencies --   3135.9141              3142.3447              3144.9755
 Red. masses --      1.1019                 1.0887                 1.0895
 Frc consts  --      6.3844                 6.3336                 6.3494
 IR Inten    --     19.8368                26.0414                17.0291

                     67                     68                     69
                      A                      A                      A
 Frequencies --   3148.8627              3153.1059              3162.2630
 Red. masses --      1.0811                 1.0616                 1.0876
 Frc consts  --      6.3155                 6.2183                 6.4080
 IR Inten    --     16.2179                13.6131                 6.1788

                     70                     71                     72
                      A                      A                      A
 Frequencies --   3165.4373              3236.2178              3239.7950
 Red. masses --      1.0680                 1.1155                 1.1160
 Frc consts  --      6.3050                 6.8835                 6.9013
 IR Inten    --      8.1476                16.8012                19.4168

 - Thermochemistry -
 -------------------
 Temperature   298.150 Kelvin.  Pressure   1.00000 Atm.
 Atom     1 has atomic number  8 and mass  15.99491

 Molecular mass:   162.10447 amu.
 Principal axes and moments of inertia in atomic units:
                           1         2         3
     Eigenvalues --  1565.827331953.111522661.95122
           X            0.99795  -0.05847  -0.02589
           Y            0.05863   0.99826   0.00552
           Z            0.02552  -0.00703   0.99965
 This molecule is an asymmetric top.
 Rotational symmetry number  1.
 Warning -- assumption of classical behavior for rotation
           may cause significant error
 Rotational temperatures (Kelvin)      0.05532     0.04435     0.03254
 Rotational constants (GHZ):           1.15258     0.92403     0.67798
 Zero-point vibrational energy     589895.0 (Joules/Mol)
                                  140.98830 (Kcal/Mol)
 Warning -- explicit consideration of  14 degrees of freedom as
           vibrations may cause significant error
 Vibrational temperatures:     89.75   118.23   155.94   182.28   273.60
          (Kelvin)            329.50   353.11   421.85   514.90   544.00
                              586.97   668.93   757.98   795.73   906.66
                              928.56  1033.05  1075.52  1111.74  1141.13
                             1191.90  1240.23  1267.51  1278.20  1351.78
                             1361.25  1384.72  1414.95  1461.41  1485.95
                             1492.26  1497.97  1514.39  1523.29  1615.35
                             1653.17  1666.82  1681.23  1704.84  1724.31
                             1815.95  1828.38  1854.96  1891.70  1897.59
                             1917.54  1930.67  1941.28  1953.86  1960.56
                             1972.81  2119.61  2132.84  2191.90  2221.00
                             2479.04  2480.19  2693.83  4321.95  4404.08
                             4418.74  4436.83  4483.15  4511.88  4521.13
                             4524.92  4530.51  4536.62  4549.79  4554.36
                             4656.20  4661.34

 Zero-point correction=                           0.224679 (Hartree/Particle)
 Thermal correction to Energy=                    0.235651
 Thermal correction to Enthalpy=                  0.236595
 Thermal correction to Gibbs Free Energy=         0.187929
 Sum of electronic and zero-point Energies=           -502.526431
 Sum of electronic and thermal Energies=              -502.515459
 Sum of electronic and thermal Enthalpies=            -502.514515
 Sum of electronic and thermal Free Energies=         -502.563181

                     E (Thermal)             CV                S
                      KCal/Mol        Cal/Mol-Kelvin    Cal/Mol-Kelvin
 Total                  147.873             43.050            102.426
 Electronic               0.000              0.000              0.000
 Translational            0.889              2.981             41.158
 Rotational               0.889              2.981             30.477
 Vibrational            146.096             37.088             30.791
 Vibration     1          0.597              1.972              4.380
 Vibration     2          0.600              1.961              3.838
 Vibration     3          0.606              1.943              3.298
 Vibration     4          0.611              1.926              2.996
 Vibration     5          0.633              1.853              2.226
 Vibration     6          0.652              1.797              1.887
 Vibration     7          0.660              1.770              1.763
 Vibration     8          0.688              1.686              1.455
 Vibration     9          0.733              1.559              1.131
 Vibration    10          0.748              1.517              1.047
 Vibration    11          0.773              1.453              0.934
 Vibration    12          0.822              1.328              0.752
 Vibration    13          0.882              1.191              0.594
 Vibration    14          0.908              1.133              0.538

 Normal termination of Gaussian 16 at Thu Feb 22 10:55:07 2024.
