 Gaussian 16, Revision A.03,
 Gaussian 16:  EM64M-G16RevA.03 25-Dec-2016

 ---------------------
 # freq b3lyp/6-31g(d)
 ---------------------

 ---------
 good luck
 ---------
 Symbolic Z-matrix:
 Charge =  0 Multiplicity = 1

                         Standard orientation:
 ---------------------------------------------------------------------
 Center     Atomic      Atomic             Coordinates (Angstroms)
 Number     Number       Type             X           Y           Z
 ---------------------------------------------------------------------
      1          8           0        0.508766   -2.618154    0.000000
      2          6           0       -0.140167   -1.588276    0.000000
      3          6           0       -0.596117   -0.923944   -1.296784
      4          6           0       -0.596117    0.622263   -1.257897
      5          6           0       -1.343858    1.103436   -0.000000
      6          6           0        0.827210    1.221493   -1.276331
      7          6           0        1.627655    0.905388    0.000000
      8          6           0        0.827210    1.221493    1.276331
      9          6           0       -0.596117    0.622263    1.257897
     10          6           0       -0.596117   -0.923944    1.296784
     11          1           0       -1.628035   -1.267018   -1.473116
     12          1           0        0.013971   -1.320393   -2.115434
     13          1           0       -1.124883    0.976772   -2.152454
     14          1           0       -1.409031    2.199633   -0.000000
     15          1           0       -2.375305    0.723825    0.000000
     16          1           0        0.736752    2.312056   -1.384024
     17          1           0        1.373229    0.865681   -2.159814
     18          1           0        2.564302    1.476936   -0.000000
     19          1           0        1.926345   -0.150377    0.000000
     20          1           0        1.373229    0.865681    2.159814
     21          1           0        0.736752    2.312056    1.384024
     22          1           0       -1.124883    0.976772    2.152454
     23          1           0       -1.628035   -1.267018    1.473116
     24          1           0        0.013971   -1.320393    2.115434
 ---------------------------------------------------------------------

 SCF Done:  E(RB3LYP) =  -426.625338666     A.U. after   13 cycles

 The electronic state is 1-A'.
 Alpha  occ. eigenvalues --  -19.12855 -10.26790 -10.19575 -10.19574 -10.18798
 Alpha  occ. eigenvalues --  -10.18797 -10.18547 -10.18311 -10.18310 -10.18172
 Alpha  occ. eigenvalues --   -1.02868  -0.85272  -0.77349  -0.76571  -0.71966
 Alpha  occ. eigenvalues --   -0.68331  -0.61404  -0.59179  -0.55107  -0.52187
 Alpha  occ. eigenvalues --   -0.47155  -0.46257  -0.45245  -0.44041  -0.43846
 Alpha  occ. eigenvalues --   -0.41793  -0.40797  -0.40497  -0.37932  -0.37548
 Alpha  occ. eigenvalues --   -0.35267  -0.34846  -0.33842  -0.33641  -0.30720
 Alpha  occ. eigenvalues --   -0.30153  -0.29783  -0.23245
 Alpha virt. eigenvalues --   -0.00955   0.06871   0.11154   0.11177   0.12703
 Alpha virt. eigenvalues --    0.12874   0.14781   0.14954   0.15811   0.16665
 Alpha virt. eigenvalues --    0.17578   0.18099   0.18262   0.19224   0.21018

 Mulliken charges:
               1
     1  O   -0.461752
     2  C    0.454698
     3  C   -0.350972
     4  C   -0.093553
     5  C   -0.272813
     6  C   -0.260434
     7  C   -0.288271
     8  C   -0.260434
     9  C   -0.093553
    10  C   -0.350972
    11  H    0.158462
    12  H    0.161325
    13  H    0.124864
    14  H    0.133531
    15  H    0.127530
    16  H    0.130044
    17  H    0.135316
    18  H    0.137923
    19  H    0.159052
    20  H    0.135316
    21  H    0.130044
    22  H    0.124864
    23  H    0.158462
    24  H    0.161325
 Sum of Mulliken charges =  -0.00000

 Dipole moment (field-independent basis, Debye):
    X=             -1.4358    Y=              2.6683    Z=             -0.0000  Tot=              3.0301
 Quadrupole moment (field-independent basis, Debye-Ang):
   XX=            -60.1456   YY=            -70.1454   ZZ=            -59.4497
   XY=              3.7679   XZ=             -0.0000   YZ=              0.0000

  Exact polarizability:  85.131  -0.988  92.114  -0.000   0.000  88.485
 Approx polarizability: 125.535  -9.221 136.193   0.000  -0.000 122.201

                      1                      2                      3
                     A'                     A"                     A'
 Frequencies --     99.4454               143.2905               254.1042
 Red. masses --      5.2810                 2.6092                 2.1934
 Frc consts  --      0.0308                 0.0316                 0.0834
 IR Inten    --      3.5489                 0.5205                 0.1394

                      4                      5                      6
                     A"                     A'                     A"
 Frequencies --    338.6562               356.9774               369.1862
 Red. masses --      1.8549                 2.6767                 3.6967
 Frc consts  --      0.1253                 0.2010                 0.2969
 IR Inten    --      0.1227                 0.4445                 1.8396

                      7                      8                      9
                     A'                     A'                     A"
 Frequencies --    388.0475               446.8739               476.6863
 Red. masses --      1.8042                 2.3282                 4.2747
 Frc consts  --      0.1601                 0.2739                 0.5723
 IR Inten    --      0.5941                 2.3721                 9.9717

                     10                     11                     12
                     A'                     A'                     A"
 Frequencies --    494.0876               578.9705               627.3497
 Red. masses --      2.1577                 2.5431                 5.1101
 Frc consts  --      0.3103                 0.5023                 1.1849
 IR Inten    --      0.2638                 1.5135                 1.4772

                     13                     14                     15
                     A'                     A'                     A"
 Frequencies --    720.0321               767.5064               775.5629
 Red. masses --      3.5679                 2.7684                 2.1805
 Frc consts  --      1.0898                 0.9608                 0.7728
 IR Inten    --      0.9639                 0.6145                 2.5807

                     16                     17                     18
                     A'                     A"                     A'
 Frequencies --    821.7642               838.6983               855.7326
 Red. masses --      2.1450                 1.7446                 2.5062
 Frc consts  --      0.8534                 0.7230                 1.0813
 IR Inten    --      2.0969                 0.1297                 0.3291

                     19                     20                     21
                     A"                     A'                     A"
 Frequencies --    891.9997               936.6845               962.0545
 Red. masses --      1.5325                 1.7888                 2.1366
 Frc consts  --      0.7184                 0.9247                 1.1651
 IR Inten    --      1.4101                 1.9188                 2.3652

                     22                     23                     24
                     A'                     A'                     A'
 Frequencies --    968.3449               992.8947              1039.0965
 Red. masses --      1.9923                 2.3551                 2.7568
 Frc consts  --      1.1007                 1.3679                 1.7537
 IR Inten    --      1.4116                 0.9997                 1.0892

                     25                     26                     27
                     A"                     A"                     A"
 Frequencies --   1057.3602              1076.6796              1115.9510
 Red. masses --      1.7360                 2.0928                 1.2429
 Frc consts  --      1.1435                 1.4294                 0.9120
 IR Inten    --      0.3464                 3.5986                10.3620

                     28                     29                     30
                     A'                     A'                     A"
 Frequencies --   1116.5806              1137.4160              1140.5279
 Red. masses --      1.8219                 1.6845                 1.0505
 Frc consts  --      1.3383                 1.2840                 0.8051
 IR Inten    --      3.4047                 4.2485                 1.3591

                     31                     32                     33
                     A"                     A"                     A'
 Frequencies --   1159.1978              1246.9351              1248.1849
 Red. masses --      1.1659                 1.8528                 1.1670
 Frc consts  --      0.9230                 1.6973                 1.0712
 IR Inten    --     12.6550                31.9616                 2.1180

                     34                     35                     36
                     A"                     A'                     A"
 Frequencies --   1264.6725              1286.3260              1314.3052
 Red. masses --      1.4034                 1.3132                 1.5116
 Frc consts  --      1.3225                 1.2802                 1.5384
 IR Inten    --      0.8416                 0.1963                 0.5198

                     37                     38                     39
                     A'                     A"                     A"
 Frequencies --   1332.3343              1354.9292              1370.8359
 Red. masses --      1.7686                 1.6888                 1.3186
 Frc consts  --      1.8497                 1.8266                 1.4600
 IR Inten    --      1.7900                 3.2931                 0.0761

                     40                     41                     42
                     A'                     A"                     A'
 Frequencies --   1371.8062              1383.7722              1398.1936
 Red. masses --      1.6445                 1.4699                 1.4334
 Frc consts  --      1.8233                 1.6583                 1.6511
 IR Inten    --      0.2613                10.6717                 4.7745

                     43                     44                     45
                     A"                     A'                     A"
 Frequencies --   1401.6314              1412.8735              1421.9389
 Red. masses --      1.4450                 1.4301                 1.4704
 Frc consts  --      1.6726                 1.6820                 1.7517
 IR Inten    --      0.2477                 1.1018                 1.0444

                     46                     47                     48
                     A"                     A'                     A'
 Frequencies --   1481.4383              1488.3711              1513.5371
 Red. masses --      1.0874                 1.0845                 1.0886
 Frc consts  --      1.4061                 1.4154                 1.4693
 IR Inten    --      8.1929                 9.5171                 3.2746

                     49                     50                     51
                     A"                     A'                     A'
 Frequencies --   1515.4007              1530.0014              1541.3367
 Red. masses --      1.0919                 1.0857                 1.0929
 Frc consts  --      1.4773                 1.4974                 1.5297
 IR Inten    --      4.5190                 8.2374                 3.3098

                     52                     53                     54
                     A'                     A"                     A'
 Frequencies --   1808.7067              3013.2067              3017.6730
 Red. masses --     11.2851                 1.0692                 1.0700
 Frc consts  --     21.7516                 5.7194                 5.7408
 IR Inten    --    171.6465                 0.0001                18.0750

                     55                     56                     57
                     A"                     A'                     A'
 Frequencies --   3023.5291              3024.2901              3026.2320
 Red. masses --      1.0649                 1.0679                 1.0633
 Frc consts  --      5.7358                 5.7550                 5.7372
 IR Inten    --      6.6462                26.7863                21.4863

                     58                     59                     60
                     A"                     A'                     A'
 Frequencies --   3043.2128              3047.9815              3049.6852
 Red. masses --      1.0831                 1.0700                 1.0784
 Frc consts  --      5.9097                 5.8567                 5.9093
 IR Inten    --     89.9456                60.4339                29.4246

                     61                     62                     63
                     A'                     A"                     A'
 Frequencies --   3066.7020              3067.3437              3068.9978
 Red. masses --      1.0965                 1.1009                 1.0993
 Frc consts  --      6.0755                 6.1028                 6.1006
 IR Inten    --     42.6588                31.7614                29.6124

                     64                     65                     66
                     A'                     A"                     A'
 Frequencies --   3087.9466              3101.4162              3102.6086
 Red. masses --      1.1025                 1.0929                 1.0935
 Frc consts  --      6.1942                 6.1937                 6.2021
 IR Inten    --     67.8677                23.4097                16.2444

 - Thermochemistry -
 -------------------
 Temperature   298.150 Kelvin.  Pressure   1.00000 Atm.
 Atom     1 has atomic number  8 and mass  15.99491

 Molecular mass:   138.10447 amu.
 Principal axes and moments of inertia in atomic units:
                           1         2         3
     Eigenvalues --   977.295521358.095671476.60206
           X            0.11706   0.00000   0.99312
           Y            0.99312   0.00000  -0.11706
           Z           -0.00000   1.00000  -0.00000
 This molecule is an asymmetric top.
 Rotational symmetry number  1.
 Warning -- assumption of classical behavior for rotation
           may cause significant error
 Rotational temperatures (Kelvin)      0.08863     0.06378     0.05866
 Rotational constants (GHZ):           1.84667     1.32888     1.22223
 Zero-point vibrational energy     570475.9 (Joules/Mol)
                                  136.34700 (Kcal/Mol)
 Warning -- explicit consideration of  11 degrees of freedom as
           vibrations may cause significant error
 Vibrational temperatures:    143.08   206.16   365.60   487.25   513.61
          (Kelvin)            531.18   558.31   642.95   685.85   710.88
                              833.01   902.62  1035.97  1104.27  1115.86
                             1182.34  1206.70  1231.21  1283.39  1347.68
                             1384.18  1393.23  1428.55  1495.03  1521.31
                             1549.10  1605.60  1606.51  1636.49  1640.97
                             1667.83  1794.06  1795.86  1819.58  1850.74
                             1890.99  1916.93  1949.44  1972.33  1973.72
                             1990.94  2011.69  2016.64  2032.81  2045.85
                             2131.46  2141.43  2177.64  2180.32  2201.33
                             2217.64  2602.33  4335.33  4341.76  4350.18
                             4351.28  4354.07  4378.50  4385.37  4387.82
                             4412.30  4413.22  4415.60  4442.87  4462.25
                             4463.96

 Zero-point correction=                           0.217283 (Hartree/Particle)
 Thermal correction to Energy=                    0.225501
 Thermal correction to Enthalpy=                  0.226445
 Thermal correction to Gibbs Free Energy=         0.184655
 Sum of electronic and zero-point Energies=           -426.408056
 Sum of electronic and thermal Energies=              -426.399838
 Sum of electronic and thermal Enthalpies=            -426.398894
 Sum of electronic and thermal Free Energies=         -426.440684

                     E (Thermal)             CV                S
                      KCal/Mol        Cal/Mol-Kelvin    Cal/Mol-Kelvin
 Total                  141.504             34.393             87.955
 Electronic               0.000              0.000              0.000
 Translational            0.889              2.981             40.680
 Rotational               0.889              2.981             29.062
 Vibrational            139.726             28.432             18.213
 Vibration     1          0.604              1.950              3.465
 Vibration     2          0.616              1.910              2.759
 Vibration     3          0.665              1.756              1.702
 Vibration     4          0.719              1.598              1.218
 Vibration     5          0.732              1.561              1.135
 Vibration     6          0.741              1.536              1.083
 Vibration     7          0.756              1.496              1.008
 Vibration     8          0.806              1.368              0.805
 Vibration     9          0.833              1.302              0.719
 Vibration    10          0.850              1.263              0.673
 Vibration    11          0.936              1.077              0.487

 Normal termination of Gaussian 16 at Wed Feb 21 19:34:04 2024.
