 Gaussian 16, Revision A.03,
 Gaussian 16:  EM64M-G16RevA.03 25-Dec-2016

 ---------------------
 # freq b3lyp/6-31g(d)
 ---------------------

 ---------
 good luck
 ---------
 Symbolic Z-matrix:
 Charge =  0 Multiplicity = 1

                         Standard orientation:
 ---------------------------------------------------------------------
 Center     Atomic      Atomic             Coordinates (Angstroms)
 Number     Number       Type             X           Y           Z
 ---------------------------------------------------------------------
      1          8           0       -2.696379    0.362713   -0.291169
      2          6           0       -1.612819   -0.141815   -0.092468
      3          6           0       -0.639896    0.156682    1.047098
      4          6           0        0.044718   -1.217582    1.220156
      5          6           0        0.535614    0.991382    0.438972
      6          6           0        0.141074    2.317231   -0.214365
      7          6           0        1.246318   -0.034261   -0.517377
      8          6           0        2.749855   -0.162369   -0.254503
      9          6           0        0.450393   -1.348047   -0.269504
     10          6           0       -0.924144   -1.214357   -0.958047
     11          1           0       -1.117704    0.618477    1.913453
     12          1           0       -0.635915   -2.010148    1.552661
     13          1           0        0.897563   -1.181598    1.906338
     14          1           0        1.215633    1.210933    1.274029
     15          1           0        1.026192    2.832694   -0.606175
     16          1           0       -0.557093    2.170832   -1.046087
     17          1           0       -0.342874    2.986298    0.506584
     18          1           0        1.110863    0.282653   -1.560623
     19          1           0        2.952057   -0.540341    0.755243
     20          1           0        3.249103    0.809895   -0.347509
     21          1           0        3.221534   -0.848019   -0.968531
     22          1           0        0.997519   -2.256534   -0.538190
     23          1           0       -0.888444   -0.912663   -2.010763
     24          1           0       -1.504085   -2.145372   -0.900850
 ---------------------------------------------------------------------

 SCF Done:  E(RB3LYP) =  -426.610646271     A.U. after   13 cycles

 The electronic state is 1-A.
 Alpha  occ. eigenvalues --  -19.13291 -10.26648 -10.19812 -10.19582 -10.19293
 Alpha  occ. eigenvalues --  -10.19187 -10.19104 -10.18866 -10.18055 -10.17648
 Alpha  occ. eigenvalues --   -1.03187  -0.87983  -0.77297  -0.75143  -0.71231
 Alpha  occ. eigenvalues --   -0.67038  -0.64163  -0.58321  -0.55450  -0.52070
 Alpha  occ. eigenvalues --   -0.48424  -0.47119  -0.45641  -0.42904  -0.42143
 Alpha  occ. eigenvalues --   -0.40884  -0.40013  -0.39493  -0.38828  -0.37606
 Alpha  occ. eigenvalues --   -0.35733  -0.35602  -0.34791  -0.33557  -0.31687
 Alpha  occ. eigenvalues --   -0.30902  -0.30605  -0.23019
 Alpha virt. eigenvalues --   -0.01031   0.07930   0.10449   0.11050   0.12146
 Alpha virt. eigenvalues --    0.13831   0.14519   0.15275   0.15411   0.16042
 Alpha virt. eigenvalues --    0.16958   0.17422   0.18332   0.18668   0.20114

 Mulliken charges:
               1
     1  O   -0.462508
     2  C    0.461122
     3  C   -0.173654
     4  C   -0.291895
     5  C   -0.092124
     6  C   -0.457886
     7  C   -0.075900
     8  C   -0.459701
     9  C   -0.117267
    10  C   -0.356544
    11  H    0.136291
    12  H    0.143588
    13  H    0.143250
    14  H    0.134527
    15  H    0.144001
    16  H    0.157628
    17  H    0.150630
    18  H    0.126462
    19  H    0.143075
    20  H    0.146805
    21  H    0.144889
    22  H    0.123401
    23  H    0.164206
    24  H    0.167602
 Sum of Mulliken charges =  -0.00000

 Dipole moment (field-independent basis, Debye):
    X=              2.8324    Y=             -1.0163    Z=              0.4171  Tot=              3.0380
 Quadrupole moment (field-independent basis, Debye-Ang):
   XX=            -71.0301   YY=            -59.7002   ZZ=            -59.7686
   XY=              3.0024   XZ=             -1.3121   YZ=              0.6010

  Exact polarizability:  96.524  -1.129  89.361   0.636   1.281  80.449
 Approx polarizability: 137.131  -5.304 124.552   3.738   1.163 122.051

                      1                      2                      3
                      A                      A                      A
 Frequencies --     86.0924               133.1918               223.2713
 Red. masses --      3.6930                 4.5249                 1.1216
 Frc consts  --      0.0161                 0.0473                 0.0329
 IR Inten    --      2.5218                 2.6777                 0.2203

                      4                      5                      6
                      A                      A                      A
 Frequencies --    236.4173               236.7834               260.3314
 Red. masses --      1.8873                 1.1803                 2.1283
 Frc consts  --      0.0622                 0.0390                 0.0850
 IR Inten    --      0.0549                 0.0753                 0.1771

                      7                      8                      9
                      A                      A                      A
 Frequencies --    334.8177               398.5676               417.4144
 Red. masses --      2.3326                 2.3121                 2.9200
 Frc consts  --      0.1541                 0.2164                 0.2998
 IR Inten    --      0.2305                 0.4166                 2.2969

                     10                     11                     12
                      A                      A                      A
 Frequencies --    458.4704               488.3112               555.9937
 Red. masses --      4.0566                 2.9002                 3.0855
 Frc consts  --      0.5024                 0.4075                 0.5620
 IR Inten    --      4.1432                 3.3944                 1.5878

                     13                     14                     15
                      A                      A                      A
 Frequencies --    600.7634               664.3635               754.0419
 Red. masses --      2.6356                 4.2333                 3.8750
 Frc consts  --      0.5605                 1.1009                 1.2981
 IR Inten    --      2.7554                 0.6577                 2.4984

                     16                     17                     18
                      A                      A                      A
 Frequencies --    785.3949               820.5576               833.0439
 Red. masses --      2.8363                 2.4454                 2.2425
 Frc consts  --      1.0308                 0.9701                 0.9169
 IR Inten    --      2.0889                 1.4057                 1.3532

                     19                     20                     21
                      A                      A                      A
 Frequencies --    905.2301               919.3929               934.3412
 Red. masses --      2.1400                 2.6841                 2.1755
 Frc consts  --      1.0332                 1.3368                 1.1190
 IR Inten    --      6.3860                 1.8248                 1.4689

                     22                     23                     24
                      A                      A                      A
 Frequencies --    951.2417               992.9587              1012.1748
 Red. masses --      1.8434                 1.7449                 1.2541
 Frc consts  --      0.9828                 1.0136                 0.7570
 IR Inten    --      0.7122                 2.8623                 0.5554

                     25                     26                     27
                      A                      A                      A
 Frequencies --   1020.0324              1047.3542              1066.0578
 Red. masses --      1.5254                 1.7078                 1.6236
 Frc consts  --      0.9351                 1.1038                 1.0872
 IR Inten    --     10.6115                 4.2303                 1.0694

                     28                     29                     30
                      A                      A                      A
 Frequencies --   1088.1193              1121.3394              1126.9160
 Red. masses --      1.7985                 1.2601                 1.9519
 Frc consts  --      1.2546                 0.9335                 1.4605
 IR Inten    --     11.3871                 0.3462                 8.7013

                     31                     32                     33
                      A                      A                      A
 Frequencies --   1165.3748              1173.1254              1190.7360
 Red. masses --      1.7125                 2.1886                 1.7362
 Frc consts  --      1.3703                 1.7746                 1.4503
 IR Inten    --      8.7255                17.0344                 5.1106

                     34                     35                     36
                      A                      A                      A
 Frequencies --   1213.9721              1245.4021              1264.3884
 Red. masses --      1.8548                 1.5306                 1.6025
 Frc consts  --      1.6105                 1.3987                 1.5094
 IR Inten    --      0.8781                 1.6744                 0.4804

                     37                     38                     39
                      A                      A                      A
 Frequencies --   1295.3288              1313.9960              1329.4653
 Red. masses --      1.5640                 1.4627                 1.4472
 Frc consts  --      1.5461                 1.4880                 1.5071
 IR Inten    --      1.5951                 0.4365                 4.6526

                     40                     41                     42
                      A                      A                      A
 Frequencies --   1331.6792              1359.7194              1380.7429
 Red. masses --      1.4487                 1.4771                 1.4633
 Frc consts  --      1.5137                 1.6090                 1.6436
 IR Inten    --      1.1041                 3.4238                 1.6036

                     43                     44                     45
                      A                      A                      A
 Frequencies --   1407.1657              1439.0828              1446.1542
 Red. masses --      1.4890                 1.2389                 1.2336
 Frc consts  --      1.7371                 1.5117                 1.5200
 IR Inten    --      2.3717                 3.2432                 2.5574

                     46                     47                     48
                      A                      A                      A
 Frequencies --   1481.9190              1524.8421              1526.4050
 Red. masses --      1.0903                 1.0485                 1.0515
 Frc consts  --      1.4108                 1.4363                 1.4435
 IR Inten    --      9.0444                 1.7186                 1.6806

                     49                     50                     51
                      A                      A                      A
 Frequencies --   1528.2283              1529.1627              1538.4166
 Red. masses --      1.0464                 1.0493                 1.0905
 Frc consts  --      1.4399                 1.4456                 1.5206
 IR Inten    --      4.6318                 4.7012                 7.8881

                     52                     53                     54
                      A                      A                      A
 Frequencies --   1846.2901              3023.2098              3032.0087
 Red. masses --     12.2422                 1.0833                 1.0843
 Frc consts  --     24.5873                 5.8338                 5.8728
 IR Inten    --    227.6366                 6.1192                25.5665

                     55                     56                     57
                      A                      A                      A
 Frequencies --   3039.3572              3046.3794              3051.8343
 Red. masses --      1.0366                 1.0364                 1.0637
 Frc consts  --      5.6417                 5.6671                 5.8371
 IR Inten    --     32.5259                28.0216                14.7837

                     58                     59                     60
                      A                      A                      A
 Frequencies --   3065.5580              3100.9798              3102.8698
 Red. masses --      1.0595                 1.0906                 1.1009
 Frc consts  --      5.8665                 6.1788                 6.2449
 IR Inten    --     24.9930                16.2146                11.0627

                     61                     62                     63
                      A                      A                      A
 Frequencies --   3104.4892              3107.1919              3109.5166
 Red. masses --      1.1007                 1.1011                 1.1022
 Frc consts  --      6.2502                 6.2634                 6.2790
 IR Inten    --     45.9438                41.8133                32.3763

                     64                     65                     66
                      A                      A                      A
 Frequencies --   3111.8505              3118.2748              3134.1330
 Red. masses --      1.1058                 1.1020                 1.0888
 Frc consts  --      6.3090                 6.3134                 6.3016
 IR Inten    --     27.2024                32.9771                24.2669

 - Thermochemistry -
 -------------------
 Temperature   298.150 Kelvin.  Pressure   1.00000 Atm.
 Atom     1 has atomic number  8 and mass  15.99491

 Molecular mass:   138.10447 amu.
 Principal axes and moments of inertia in atomic units:
                           1         2         3
     Eigenvalues --   898.604451399.404811772.04241
           X            0.99987   0.01512  -0.00502
           Y           -0.01514   0.99988  -0.00439
           Z            0.00496   0.00446   0.99998
 This molecule is an asymmetric top.
 Rotational symmetry number  1.
 Warning -- assumption of classical behavior for rotation
           may cause significant error
 Rotational temperatures (Kelvin)      0.09639     0.06189     0.04888
 Rotational constants (GHZ):           2.00838     1.28965     1.01845
 Zero-point vibrational energy     563155.4 (Joules/Mol)
                                  134.59738 (Kcal/Mol)
 Warning -- explicit consideration of  13 degrees of freedom as
           vibrations may cause significant error
 Vibrational temperatures:    123.87   191.63   321.24   340.15   340.68
          (Kelvin)            374.56   481.73   573.45   600.57   659.64
                              702.57   799.95   864.36   955.87  1084.90
                             1130.01  1180.60  1198.56  1302.42  1322.80
                             1344.31  1368.62  1428.65  1456.29  1467.60
                             1506.91  1533.82  1565.56  1613.36  1621.38
                             1676.71  1687.87  1713.20  1746.64  1791.86
                             1819.17  1863.69  1890.55  1912.80  1915.99
                             1956.33  1986.58  2024.60  2070.52  2080.69
                             2132.15  2193.91  2196.16  2198.78  2200.12
                             2213.44  2656.40  4349.72  4362.38  4372.96
                             4383.06  4390.91  4410.65  4461.62  4464.34
                             4466.67  4470.56  4473.90  4477.26  4486.50
                             4509.32

 Zero-point correction=                           0.214495 (Hartree/Particle)
 Thermal correction to Energy=                    0.223670
 Thermal correction to Enthalpy=                  0.224614
 Thermal correction to Gibbs Free Energy=         0.180854
 Sum of electronic and zero-point Energies=           -426.396152
 Sum of electronic and thermal Energies=              -426.386977
 Sum of electronic and thermal Enthalpies=            -426.386032
 Sum of electronic and thermal Free Energies=         -426.429793

                     E (Thermal)             CV                S
                      KCal/Mol        Cal/Mol-Kelvin    Cal/Mol-Kelvin
 Total                  140.355             36.898             92.101
 Electronic               0.000              0.000              0.000
 Translational            0.889              2.981             40.680
 Rotational               0.889              2.981             29.190
 Vibrational            138.577             30.936             22.231
 Vibration     1          0.601              1.959              3.747
 Vibration     2          0.613              1.920              2.899
 Vibration     3          0.649              1.806              1.932
 Vibration     4          0.655              1.785              1.830
 Vibration     5          0.656              1.784              1.827
 Vibration     6          0.668              1.745              1.660
 Vibration     7          0.716              1.606              1.237
 Vibration     8          0.765              1.473              0.968
 Vibration     9          0.780              1.432              0.901
 Vibration    10          0.816              1.342              0.771
 Vibration    11          0.844              1.276              0.688
 Vibration    12          0.911              1.127              0.532
 Vibration    13          0.959              1.030              0.448

 Normal termination of Gaussian 16 at Wed Feb 21 19:15:49 2024.
