 Gaussian 16, Revision A.03,
 Gaussian 16:  EM64M-G16RevA.03 25-Dec-2016

 ---------------------
 # freq b3lyp/6-31g(d)
 ---------------------

 ---------
 good luck
 ---------
 Symbolic Z-matrix:
 Charge =  0 Multiplicity = 1

                         Standard orientation:
 ---------------------------------------------------------------------
 Center     Atomic      Atomic             Coordinates (Angstroms)
 Number     Number       Type             X           Y           Z
 ---------------------------------------------------------------------
      1          8           0        2.516091    0.000001   -1.128383
      2          6           0        1.485054    0.000001   -0.499489
      3          6           0        0.614887   -1.155486    0.011100
      4          6           0       -0.720059   -0.797434   -0.709175
      5          6           0       -1.966951   -1.490955   -0.151872
      6          6           0       -0.720058    0.797436   -0.709173
      7          6           0       -1.966951    1.490955   -0.151870
      8          6           0        0.614887    1.155487    0.011103
      9          6           0        0.552002    0.785958    1.512486
     10          6           0        0.552002   -0.785962    1.512485
     11          1           0        0.990596   -2.157325   -0.205297
     12          1           0       -0.615176   -1.125792   -1.751216
     13          1           0       -2.193265   -1.205150    0.880051
     14          1           0       -2.848690   -1.253962   -0.757583
     15          1           0       -1.837268   -2.579469   -0.173213
     16          1           0       -0.615176    1.125794   -1.751214
     17          1           0       -1.837268    2.579468   -0.173209
     18          1           0       -2.193267    1.205149    0.880052
     19          1           0       -2.848690    1.253963   -0.757584
     20          1           0        0.990596    2.157327   -0.205293
     21          1           0        1.432019    1.177074    2.033815
     22          1           0       -0.327014    1.204428    2.010187
     23          1           0       -0.327014   -1.204432    2.010184
     24          1           0        1.432018   -1.177077    2.033814
 ---------------------------------------------------------------------

 SCF Done:  E(RB3LYP) =  -426.597306161     A.U. after   13 cycles

 The electronic state is 1-A.
 Alpha  occ. eigenvalues --  -19.13861 -10.26477 -10.19920 -10.19906 -10.19151
 Alpha  occ. eigenvalues --  -10.19134 -10.19028 -10.19026 -10.18133 -10.18132
 Alpha  occ. eigenvalues --   -1.03648  -0.87460  -0.77364  -0.75655  -0.70368
 Alpha  occ. eigenvalues --   -0.69283  -0.61971  -0.59603  -0.53001  -0.52290
 Alpha  occ. eigenvalues --   -0.50654  -0.46686  -0.44666  -0.43519  -0.42813
 Alpha  occ. eigenvalues --   -0.41478  -0.39685  -0.38552  -0.37715  -0.36683
 Alpha  occ. eigenvalues --   -0.36295  -0.35911  -0.35506  -0.33907  -0.33661
 Alpha  occ. eigenvalues --   -0.30740  -0.29437  -0.22619
 Alpha virt. eigenvalues --   -0.00679   0.06784   0.09635   0.11153   0.13113
 Alpha virt. eigenvalues --    0.13143   0.14164   0.14644   0.15277   0.16500
 Alpha virt. eigenvalues --    0.17019   0.17830   0.17903   0.18539   0.21178

 Mulliken charges:
               1
     1  O   -0.444114
     2  C    0.422676
     3  C   -0.164203
     4  C   -0.096652
     5  C   -0.455406
     6  C   -0.096652
     7  C   -0.455406
     8  C   -0.164203
     9  C   -0.289002
    10  C   -0.289002
    11  H    0.135872
    12  H    0.139483
    13  H    0.146999
    14  H    0.148037
    15  H    0.147644
    16  H    0.139483
    17  H    0.147644
    18  H    0.146998
    19  H    0.148036
    20  H    0.135872
    21  H    0.151634
    22  H    0.146314
    23  H    0.146314
    24  H    0.151634
 Sum of Mulliken charges =  -0.00000

 Dipole moment (field-independent basis, Debye):
    X=             -2.6823    Y=             -0.0000    Z=              1.3761  Tot=              3.0147
 Quadrupole moment (field-independent basis, Debye-Ang):
   XX=            -69.0838   YY=            -59.7095   ZZ=            -61.7688
   XY=             -0.0000   XZ=              5.2249   YZ=             -0.0000

  Exact polarizability:  94.983   0.000  87.701  -0.640   0.000  82.082
 Approx polarizability: 136.019   0.000 121.469  -8.078   0.000 123.801

                      1                      2                      3
                      A                      A                      A
 Frequencies --     55.1279               128.0849               211.9095
 Red. masses --      2.7292                 6.4578                 1.1051
 Frc consts  --      0.0049                 0.0624                 0.0292
 IR Inten    --      0.2841                 2.7442                 0.0639

                      4                      5                      6
                      A                      A                      A
 Frequencies --    249.2268               275.4687               280.6449
 Red. masses --      1.3054                 2.5731                 1.7261
 Frc consts  --      0.0478                 0.1150                 0.0801
 IR Inten    --      0.2171                 0.0538                 0.4372

                      7                      8                      9
                      A                      A                      A
 Frequencies --    301.4693               304.9818               446.8421
 Red. masses --      1.7542                 3.0057                 3.2556
 Frc consts  --      0.0939                 0.1647                 0.3830
 IR Inten    --      0.0812                 0.7924                 1.3695

                     10                     11                     12
                      A                      A                      A
 Frequencies --    446.9194               503.7520               555.5408
 Red. masses --      3.3333                 3.4753                 3.2091
 Frc consts  --      0.3923                 0.5196                 0.5835
 IR Inten    --      0.4860                 6.8005                 0.5117

                     13                     14                     15
                      A                      A                      A
 Frequencies --    623.1714               699.7783               737.8714
 Red. masses --      4.3632                 3.1097                 3.1406
 Frc consts  --      0.9983                 0.8972                 1.0075
 IR Inten    --      0.9978                 0.5550                 9.4801

                     16                     17                     18
                      A                      A                      A
 Frequencies --    780.5713               804.8229               805.1939
 Red. masses --      2.8231                 2.2796                 2.3167
 Frc consts  --      1.0135                 0.8700                 0.8850
 IR Inten    --      1.5612                 0.2959                 2.7796

                     19                     20                     21
                      A                      A                      A
 Frequencies --    873.9210               889.3107               942.6490
 Red. masses --      1.8314                 4.1280                 1.8886
 Frc consts  --      0.8241                 1.9235                 0.9887
 IR Inten    --      0.6179                 2.7519                 3.1343

                     22                     23                     24
                      A                      A                      A
 Frequencies --    954.9324              1006.6504              1008.8564
 Red. masses --      2.0601                 2.0021                 1.5399
 Frc consts  --      1.1068                 1.1954                 0.9234
 IR Inten    --      2.2134                 0.2441                 0.0052

                     25                     26                     27
                      A                      A                      A
 Frequencies --   1036.9706              1043.5120              1087.6118
 Red. masses --      1.4018                 1.7369                 2.5872
 Frc consts  --      0.8881                 1.1143                 1.8031
 IR Inten    --      1.3093                 0.0064                 3.7324

                     28                     29                     30
                      A                      A                      A
 Frequencies --   1095.1774              1125.7793              1166.1173
 Red. masses --      2.0042                 1.2786                 1.3529
 Frc consts  --      1.4163                 0.9548                 1.0840
 IR Inten    --      7.6788                 5.1644                 0.0586

                     31                     32                     33
                      A                      A                      A
 Frequencies --   1166.4964              1170.9009              1196.0178
 Red. masses --      2.4733                 2.1258                 1.6776
 Frc consts  --      1.9829                 1.7172                 1.4139
 IR Inten    --     30.2249                 7.0141                 0.5472

                     34                     35                     36
                      A                      A                      A
 Frequencies --   1206.5049              1265.2120              1277.9183
 Red. masses --      1.6639                 1.3115                 1.5005
 Frc consts  --      1.4270                 1.2370                 1.4437
 IR Inten    --      0.0612                 1.5696                 0.1125

                     37                     38                     39
                      A                      A                      A
 Frequencies --   1293.8475              1330.2191              1335.2152
 Red. masses --      1.4451                 1.3104                 1.4799
 Frc consts  --      1.4253                 1.3661                 1.5545
 IR Inten    --      0.2491                 0.2267                 0.7197

                     40                     41                     42
                      A                      A                      A
 Frequencies --   1360.8971              1364.0709              1393.3383
 Red. masses --      1.4965                 1.3853                 1.3639
 Frc consts  --      1.6329                 1.5186                 1.5601
 IR Inten    --      4.6760                 0.3366                 2.2462

                     43                     44                     45
                      A                      A                      A
 Frequencies --   1393.9191              1435.8956              1445.8638
 Red. masses --      1.2863                 1.2826                 1.2198
 Frc consts  --      1.4726                 1.5581                 1.5024
 IR Inten    --      6.5536                 3.3020                 4.4024

                     46                     47                     48
                      A                      A                      A
 Frequencies --   1512.1595              1520.4481              1530.5072
 Red. masses --      1.0598                 1.0493                 1.0642
 Frc consts  --      1.4279                 1.4292                 1.4687
 IR Inten    --      5.6749                 0.0804                 0.6976

                     49                     50                     51
                      A                      A                      A
 Frequencies --   1536.3988              1539.3677              1554.0806
 Red. masses --      1.0630                 1.0467                 1.0735
 Frc consts  --      1.4784                 1.4613                 1.5276
 IR Inten    --      1.3091                11.1200                 5.7367

                     52                     53                     54
                      A                      A                      A
 Frequencies --   1871.4717              3027.1931              3047.7478
 Red. masses --     12.1120                 1.0860                 1.0800
 Frc consts  --     24.9938                 5.8638                 5.9106
 IR Inten    --    275.4450                 5.4245                43.3424

                     55                     56                     57
                      A                      A                      A
 Frequencies --   3049.0811              3055.3750              3070.0097
 Red. masses --      1.0361                 1.0416                 1.0635
 Frc consts  --      5.6752                 5.7292                 5.9055
 IR Inten    --     11.7772                27.7667                26.2050

                     58                     59                     60
                      A                      A                      A
 Frequencies --   3080.5749              3106.8997              3108.8017
 Red. masses --      1.0622                 1.1040                 1.1025
 Frc consts  --      5.9391                 6.2788                 6.2777
 IR Inten    --     38.0221                 6.3725                29.8388

                     61                     62                     63
                      A                      A                      A
 Frequencies --   3114.1527              3121.6702              3123.5083
 Red. masses --      1.1012                 1.1004                 1.1040
 Frc consts  --      6.2921                 6.3177                 6.3458
 IR Inten    --     13.4642                 4.7334                55.2963

                     64                     65                     66
                      A                      A                      A
 Frequencies --   3132.6761              3132.9682              3135.2940
 Red. masses --      1.0969                 1.0879                 1.0931
 Frc consts  --      6.3425                 6.2914                 6.3307
 IR Inten    --     26.8740                46.3142                34.7158

 - Thermochemistry -
 -------------------
 Temperature   298.150 Kelvin.  Pressure   1.00000 Atm.
 Atom     1 has atomic number  8 and mass  15.99491

 Molecular mass:   138.10447 amu.
 Principal axes and moments of inertia in atomic units:
                           1         2         3
     Eigenvalues --   959.399531445.652801576.44408
           X            0.99919  -0.00000   0.04035
           Y            0.00000   1.00000   0.00000
           Z           -0.04035  -0.00000   0.99919
 This molecule is an asymmetric top.
 Rotational symmetry number  1.
 Warning -- assumption of classical behavior for rotation
           may cause significant error
 Rotational temperatures (Kelvin)      0.09028     0.05991     0.05494
 Rotational constants (GHZ):           1.88112     1.24839     1.14482
 Zero-point vibrational energy     564933.9 (Joules/Mol)
                                  135.02244 (Kcal/Mol)
 Warning -- explicit consideration of  12 degrees of freedom as
           vibrations may cause significant error
 Vibrational temperatures:     79.32   184.29   304.89   358.58   396.34
          (Kelvin)            403.79   433.75   438.80   642.91   643.02
                              724.79   799.30   896.60  1006.82  1061.63
                             1123.07  1157.96  1158.49  1257.38  1279.52
                             1356.26  1373.93  1448.35  1451.52  1491.97
                             1501.38  1564.83  1575.72  1619.75  1677.78
                             1678.33  1684.67  1720.80  1735.89  1820.36
                             1838.64  1861.56  1913.89  1921.08  1958.03
                             1962.59  2004.70  2005.54  2065.93  2080.28
                             2175.66  2187.59  2202.06  2210.54  2214.81
                             2235.98  2692.63  4355.46  4385.03  4386.95
                             4396.00  4417.06  4432.26  4470.14  4472.87
                             4480.57  4491.39  4494.03  4507.22  4507.64
                             4510.99

 Zero-point correction=                           0.215172 (Hartree/Particle)
 Thermal correction to Energy=                    0.224440
 Thermal correction to Enthalpy=                  0.225384
 Thermal correction to Gibbs Free Energy=         0.181150
 Sum of electronic and zero-point Energies=           -426.382134
 Sum of electronic and thermal Energies=              -426.372866
 Sum of electronic and thermal Enthalpies=            -426.371922
 Sum of electronic and thermal Free Energies=         -426.416156

                     E (Thermal)             CV                S
                      KCal/Mol        Cal/Mol-Kelvin    Cal/Mol-Kelvin
 Total                  140.838             36.918             93.098
 Electronic               0.000              0.000              0.000
 Translational            0.889              2.981             40.680
 Rotational               0.889              2.981             29.171
 Vibrational            139.061             30.956             23.247
 Vibration     1          0.596              1.976              4.624
 Vibration     2          0.611              1.925              2.975
 Vibration     3          0.643              1.823              2.027
 Vibration     4          0.662              1.764              1.736
 Vibration     5          0.677              1.719              1.562
 Vibration     6          0.680              1.709              1.530
 Vibration     7          0.693              1.671              1.409
 Vibration     8          0.696              1.664              1.389
 Vibration     9          0.806              1.368              0.805
 Vibration    10          0.806              1.368              0.805
 Vibration    11          0.859              1.242              0.649
 Vibration    12          0.911              1.128              0.533

 Normal termination of Gaussian 16 at Wed Feb 21 19:20:05 2024.
