 Gaussian 16, Revision A.03,
 Gaussian 16:  EM64M-G16RevA.03 25-Dec-2016

 ---------------------
 # freq b3lyp/6-31g(d)
 ---------------------

 ---------
 good luck
 ---------
 Symbolic Z-matrix:
 Charge =  0 Multiplicity = 1

                         Standard orientation:
 ---------------------------------------------------------------------
 Center     Atomic      Atomic             Coordinates (Angstroms)
 Number     Number       Type             X           Y           Z
 ---------------------------------------------------------------------
      1          8           0        3.351640   -0.797773    0.509131
      2          6           0        2.283772   -0.617285   -0.046644
      3          6           0        1.780517    0.770566   -0.441273
      4          6           0        2.733461    1.879294    0.006149
      5          6           0        0.337750    0.974921    0.086226
      6          6           0       -0.637408   -0.137072   -0.358180
      7          6           0       -2.135199    0.130145    0.028894
      8          6           0       -2.342159    0.215573    1.555252
      9          6           0       -2.611244    1.453076   -0.611151
     10          6           0       -3.027943   -0.999942   -0.529906
     11          6           0       -0.090431   -1.496805    0.126847
     12          6           0        1.339971   -1.760443   -0.387877
     13          1           0        1.722614    0.767386   -1.542973
     14          1           0        3.739662    1.716640   -0.390093
     15          1           0        2.814819    1.906163    1.098121
     16          1           0        2.376123    2.856837   -0.336669
     17          1           0        0.374446    1.020350    1.183884
     18          1           0       -0.007285    1.957078   -0.253402
     19          1           0       -0.618640   -0.159466   -1.461090
     20          1           0       -2.054888   -0.713035    2.061055
     21          1           0       -1.768085    1.034939    2.001925
     22          1           0       -3.399618    0.396655    1.782852
     23          1           0       -2.437684    1.456447   -1.694819
     24          1           0       -3.686959    1.588472   -0.447827
     25          1           0       -2.107768    2.327501   -0.186441
     26          1           0       -2.871649   -1.135775   -1.607714
     27          1           0       -4.086410   -0.758284   -0.376883
     28          1           0       -2.841798   -1.960351   -0.038463
     29          1           0       -0.733645   -2.320567   -0.197922
     30          1           0       -0.079487   -1.521392    1.224784
     31          1           0        1.753301   -2.686821    0.022129
     32          1           0        1.313317   -1.862766   -1.483518
 ---------------------------------------------------------------------

 SCF Done:  E(RB3LYP) =  -506.455788670     A.U. after   14 cycles

 The electronic state is 1-A.
 Alpha  occ. eigenvalues --  -19.13194 -10.26450 -10.20225 -10.19502 -10.19380
 Alpha  occ. eigenvalues --  -10.19000 -10.18864 -10.18798 -10.17531 -10.17523
 Alpha  occ. eigenvalues --  -10.17503 -10.17150  -1.03040  -0.84555  -0.80388
 Alpha  occ. eigenvalues --   -0.76916  -0.71969  -0.68797  -0.68641  -0.66813
 Alpha  occ. eigenvalues --   -0.60781  -0.60041  -0.53105  -0.52512  -0.47331
 Alpha  occ. eigenvalues --   -0.46694  -0.45337  -0.44341  -0.44264  -0.42494
 Alpha  occ. eigenvalues --   -0.42462  -0.41658  -0.39302  -0.38625  -0.37981
 Alpha  occ. eigenvalues --   -0.37699  -0.37358  -0.36172  -0.35948  -0.34675
 Alpha  occ. eigenvalues --   -0.34259  -0.34007  -0.33357  -0.31600  -0.30548
 Alpha  occ. eigenvalues --   -0.30003  -0.23304
 Alpha virt. eigenvalues --   -0.01066   0.07665   0.09344   0.10508   0.11292
 Alpha virt. eigenvalues --    0.12389   0.12641   0.13574   0.13850   0.15478
 Alpha virt. eigenvalues --    0.15625   0.16139   0.16810   0.17213   0.17937

 Mulliken charges:
               1
     1  O   -0.451545
     2  C    0.453054
     3  C   -0.172000
     4  C   -0.438254
     5  C   -0.283132
     6  C   -0.074955
     7  C    0.103038
     8  C   -0.456486
     9  C   -0.452439
    10  C   -0.452658
    11  C   -0.287203
    12  C   -0.346272
    13  H    0.140879
    14  H    0.160064
    15  H    0.153128
    16  H    0.134728
    17  H    0.140388
    18  H    0.142828
    19  H    0.110547
    20  H    0.143878
    21  H    0.144641
    22  H    0.140805
    23  H    0.137473
    24  H    0.140213
    25  H    0.144820
    26  H    0.137415
    27  H    0.140268
    28  H    0.144619
    29  H    0.145092
    30  H    0.144924
    31  H    0.160859
    32  H    0.151283
 Sum of Mulliken charges =  -0.00000

 Dipole moment (field-independent basis, Debye):
    X=             -2.7920    Y=              0.4632    Z=             -1.1538  Tot=              3.0563
 Quadrupole moment (field-independent basis, Debye-Ang):
   XX=            -88.6409   YY=            -75.4947   ZZ=            -75.5684
   XY=              3.1071   XZ=             -4.0853   YZ=              0.9086

  Exact polarizability: 133.181   0.223 111.650   2.807  -0.325  97.845
 Approx polarizability: 171.284  -3.154 154.184   8.661  -1.776 154.770

                      1                      2                      3
                      A                      A                      A
 Frequencies --     32.7810                62.2148               120.3043
 Red. masses --      2.5502                 5.7189                 2.3176
 Frc consts  --      0.0016                 0.0130                 0.0198
 IR Inten    --      0.0851                 2.8336                 0.0594

                      4                      5                      6
                      A                      A                      A
 Frequencies --    155.4655               177.9207               202.2901
 Red. masses --      2.6556                 2.0395                 1.0996
 Frc consts  --      0.0378                 0.0380                 0.0265
 IR Inten    --      0.4629                 0.1872                 0.1615

                      7                      8                      9
                      A                      A                      A
 Frequencies --    234.2206               255.4781               266.6107
 Red. masses --      1.2781                 1.2497                 1.0641
 Frc consts  --      0.0413                 0.0481                 0.0446
 IR Inten    --      0.0061                 0.1042                 0.0193

                     10                     11                     12
                      A                      A                      A
 Frequencies --    272.9320               283.4715               310.9878
 Red. masses --      2.6823                 2.8639                 2.3457
 Frc consts  --      0.1177                 0.1356                 0.1337
 IR Inten    --      0.3582                 3.3423                 0.7809

                     13                     14                     15
                      A                      A                      A
 Frequencies --    340.4484               361.2896               388.3816
 Red. masses --      1.9664                 2.2491                 2.7308
 Frc consts  --      0.1343                 0.1730                 0.2427
 IR Inten    --      0.2549                 0.7020                 1.9633

                     16                     17                     18
                      A                      A                      A
 Frequencies --    394.3528               444.7850               453.4644
 Red. masses --      2.6541                 2.5253                 2.6942
 Frc consts  --      0.2432                 0.2943                 0.3264
 IR Inten    --      1.8833                 0.5300                 0.8437

                     19                     20                     21
                      A                      A                      A
 Frequencies --    509.5562               529.5306               572.7903
 Red. masses --      2.2201                 2.4304                 3.5951
 Frc consts  --      0.3396                 0.4015                 0.6950
 IR Inten    --      1.4415                 0.5171                 3.6438

                     22                     23                     24
                      A                      A                      A
 Frequencies --    686.4545               731.6350               776.0647
 Red. masses --      3.9647                 2.6117                 2.6842
 Frc consts  --      1.1007                 0.8237                 0.9525
 IR Inten    --      1.2525                 3.2345                 1.8425

                     25                     26                     27
                      A                      A                      A
 Frequencies --    831.7882               874.9796               903.8026
 Red. masses --      1.7510                 2.4069                 1.8833
 Frc consts  --      0.7138                 1.0857                 0.9064
 IR Inten    --      2.7001                 3.9839                 3.9458

                     28                     29                     30
                      A                      A                      A
 Frequencies --    919.0713               940.1434               941.5014
 Red. masses --      2.0623                 1.7627                 1.7650
 Frc consts  --      1.0264                 0.9179                 0.9218
 IR Inten    --      2.5040                 0.6886                 0.8578

                     31                     32                     33
                      A                      A                      A
 Frequencies --    964.3304               970.1705               986.2791
 Red. masses --      1.7019                 1.2119                 1.7700
 Frc consts  --      0.9325                 0.6721                 1.0144
 IR Inten    --      0.7393                 0.1761                 4.3434

                     34                     35                     36
                      A                      A                      A
 Frequencies --   1021.4133              1046.2303              1047.7749
 Red. masses --      1.7193                 1.3950                 1.5393
 Frc consts  --      1.0568                 0.8996                 0.9957
 IR Inten    --      4.8599                 0.7203                 0.2961

                     37                     38                     39
                      A                      A                      A
 Frequencies --   1087.1079              1100.4795              1126.6181
 Red. masses --      1.5153                 2.6201                 1.6135
 Frc consts  --      1.0551                 1.8696                 1.2066
 IR Inten    --      4.7396                 5.5882                 4.8346

                     40                     41                     42
                      A                      A                      A
 Frequencies --   1143.3116              1157.7214              1187.3303
 Red. masses --      2.1125                 1.9678                 1.9812
 Frc consts  --      1.6269                 1.5540                 1.6456
 IR Inten    --      0.1608                 5.1184                23.9020

                     43                     44                     45
                      A                      A                      A
 Frequencies --   1218.8358              1250.9730              1265.4464
 Red. masses --      1.8718                 2.3049                 1.9174
 Frc consts  --      1.6383                 2.1252                 1.8091
 IR Inten    --      4.9669                10.6962                14.8560

                     46                     47                     48
                      A                      A                      A
 Frequencies --   1276.7433              1289.5133              1317.3449
 Red. masses --      1.9636                 1.5173                 1.2911
 Frc consts  --      1.8859                 1.4865                 1.3201
 IR Inten    --      6.0561                 0.3899                 0.0501

                     49                     50                     51
                      A                      A                      A
 Frequencies --   1336.5081              1354.8358              1369.3046
 Red. masses --      1.3655                 1.3496                 1.3242
 Frc consts  --      1.4370                 1.4596                 1.4629
 IR Inten    --      1.6029                 1.6213                 1.8156

                     52                     53                     54
                      A                      A                      A
 Frequencies --   1387.3048              1399.0803              1413.6640
 Red. masses --      1.3769                 1.7300                 1.5255
 Frc consts  --      1.5613                 1.9952                 1.7963
 IR Inten    --      5.4939                 6.0604                 0.5382

                     55                     56                     57
                      A                      A                      A
 Frequencies --   1430.3275              1431.3448              1440.6938
 Red. masses --      1.2379                 1.2297                 1.2391
 Frc consts  --      1.4921                 1.4843                 1.5153
 IR Inten    --      2.9778                 8.2463                 3.9045

                     58                     59                     60
                      A                      A                      A
 Frequencies --   1461.5638              1498.6713              1512.3499
 Red. masses --      1.2226                 1.0902                 1.0566
 Frc consts  --      1.5388                 1.4427                 1.4239
 IR Inten    --      5.6340                 7.6118                 0.9809

                     61                     62                     63
                      A                      A                      A
 Frequencies --   1516.8584              1518.2948              1521.5354
 Red. masses --      1.0706                 1.0452                 1.0454
 Frc consts  --      1.4513                 1.4196                 1.4259
 IR Inten    --      0.8401                 1.0022                 3.4060

                     64                     65                     66
                      A                      A                      A
 Frequencies --   1523.8571              1525.6253              1532.6284
 Red. masses --      1.0512                 1.0593                 1.0835
 Frc consts  --      1.4382                 1.4527                 1.4996
 IR Inten    --      0.9499                 7.1385                 2.3353

                     67                     68                     69
                      A                      A                      A
 Frequencies --   1540.0777              1542.6988              1552.0682
 Red. masses --      1.0501                 1.0600                 1.0560
 Frc consts  --      1.4675                 1.4864                 1.4987
 IR Inten    --      3.9337                 1.9440                13.7867

                     70                     71                     72
                      A                      A                      A
 Frequencies --   1811.5707              2979.3660              2990.1250
 Red. masses --     11.3345                 1.0821                 1.0805
 Frc consts  --     21.9162                 5.6594                 5.6921
 IR Inten    --    180.5297                14.4070                15.3056

                     73                     74                     75
                      A                      A                      A
 Frequencies --   3024.1506              3036.2033              3039.1805
 Red. masses --      1.0693                 1.0623                 1.0392
 Frc consts  --      5.7616                 5.7696                 5.6555
 IR Inten    --     12.3704                 6.2321                22.7911

                     76                     77                     78
                      A                      A                      A
 Frequencies --   3042.0502              3046.2333              3052.3712
 Red. masses --      1.0387                 1.0533                 1.0464
 Frc consts  --      5.6634                 5.7590                 5.7444
 IR Inten    --     23.3194                25.9854                39.2622

                     79                     80                     81
                      A                      A                      A
 Frequencies --   3057.5420              3093.6139              3099.6881
 Red. masses --      1.0373                 1.0979                 1.1017
 Frc consts  --      5.7132                 6.1910                 6.2366
 IR Inten    --     26.0684                22.9682                 3.4626

                     82                     83                     84
                      A                      A                      A
 Frequencies --   3100.5941              3105.2851              3109.9067
 Red. masses --      1.0992                 1.1011                 1.1002
 Frc consts  --      6.2258                 6.2556                 6.2691
 IR Inten    --     18.3835                45.7030                74.7484

                     85                     86                     87
                      A                      A                      A
 Frequencies --   3114.7308              3117.7865              3121.3362
 Red. masses --      1.0950                 1.1020                 1.1001
 Frc consts  --      6.2590                 6.3114                 6.3147
 IR Inten    --     17.6154                 4.5614                51.4301

                     88                     89                     90
                      A                      A                      A
 Frequencies --   3122.4296              3122.7556              3139.0647
 Red. masses --      1.0996                 1.1006                 1.1014
 Frc consts  --      6.3162                 6.3234                 6.3943
 IR Inten    --     75.3770                 9.1674                20.7508

 - Thermochemistry -
 -------------------
 Temperature   298.150 Kelvin.  Pressure   1.00000 Atm.
 Atom     1 has atomic number  8 and mass  15.99491

 Molecular mass:   168.15142 amu.
 Principal axes and moments of inertia in atomic units:
                           1         2         3
     Eigenvalues --  1107.152663208.147813774.79205
           X            0.99983   0.01798  -0.00477
           Y           -0.01794   0.99980   0.00836
           Z            0.00492  -0.00827   0.99995
 This molecule is an asymmetric top.
 Rotational symmetry number  1.
 Warning -- assumption of classical behavior for rotation
           may cause significant error
 Rotational temperatures (Kelvin)      0.07823     0.02700     0.02295
 Rotational constants (GHZ):           1.63007     0.56255     0.47810
 Zero-point vibrational energy     769005.1 (Joules/Mol)
                                  183.79664 (Kcal/Mol)
 Warning -- explicit consideration of  21 degrees of freedom as
           vibrations may cause significant error
 Vibrational temperatures:     47.16    89.51   173.09   223.68   255.99
          (Kelvin)            291.05   336.99   367.58   383.59   392.69
                              407.85   447.44   489.83   519.82   558.79
                              567.39   639.95   652.43   733.14   761.88
                              824.12   987.65  1052.66  1116.58  1196.76
                             1258.90  1300.37  1322.34  1352.66  1354.61
                             1387.46  1395.86  1419.04  1469.59  1505.29
                             1507.51  1564.11  1583.34  1620.95  1644.97
                             1665.70  1708.30  1753.63  1799.87  1820.70
                             1836.95  1855.32  1895.37  1922.94  1949.31
                             1970.12  1996.02  2012.96  2033.95  2057.92
                             2059.39  2072.84  2102.86  2156.25  2175.93
                             2182.42  2184.49  2189.15  2192.49  2195.03
                             2205.11  2215.83  2219.60  2233.08  2606.45
                             4286.64  4302.12  4351.08  4368.42  4372.70
                             4376.83  4382.85  4391.68  4399.12  4451.02
                             4459.76  4461.06  4467.81  4474.46  4481.40
                             4485.80  4490.91  4492.48  4492.95  4516.41

 Zero-point correction=                           0.292899 (Hartree/Particle)
 Thermal correction to Energy=                    0.306312
 Thermal correction to Enthalpy=                  0.307256
 Thermal correction to Gibbs Free Energy=         0.253703
 Sum of electronic and zero-point Energies=           -506.162890
 Sum of electronic and thermal Energies=              -506.149477
 Sum of electronic and thermal Enthalpies=            -506.148532
 Sum of electronic and thermal Free Energies=         -506.202085

                     E (Thermal)             CV                S
                      KCal/Mol        Cal/Mol-Kelvin    Cal/Mol-Kelvin
 Total                  192.214             52.053            112.712
 Electronic               0.000              0.000              0.000
 Translational            0.889              2.981             41.267
 Rotational               0.889              2.981             30.973
 Vibrational            190.436             46.092             40.472
 Vibration     1          0.594              1.983              5.654
 Vibration     2          0.597              1.972              4.386
 Vibration     3          0.609              1.932              3.095
 Vibration     4          0.620              1.897              2.604
 Vibration     5          0.628              1.869              2.350
 Vibration     6          0.639              1.837              2.112
 Vibration     7          0.654              1.789              1.846
 Vibration     8          0.666              1.754              1.692
 Vibration     9          0.672              1.734              1.618
 Vibration    10          0.676              1.723              1.578
 Vibration    11          0.682              1.704              1.513
 Vibration    12          0.700              1.653              1.357
 Vibration    13          0.720              1.595              1.210
 Vibration    14          0.735              1.552              1.117
 Vibration    15          0.757              1.495              1.006
 Vibration    16          0.761              1.482              0.984
 Vibration    17          0.804              1.372              0.812
 Vibration    18          0.812              1.353              0.785
 Vibration    19          0.865              1.229              0.635
 Vibration    20          0.884              1.185              0.588
 Vibration    21          0.929              1.090              0.499

 Normal termination of Gaussian 16 at Sat Feb 24 04:32:11 2024.
