 Gaussian 16, Revision A.03,
 Gaussian 16:  EM64M-G16RevA.03 25-Dec-2016

 ---------------------
 # freq b3lyp/6-31g(d)
 ---------------------

 ---------
 good luck
 ---------
 Symbolic Z-matrix:
 Charge =  0 Multiplicity = 1

                         Standard orientation:
 ---------------------------------------------------------------------
 Center     Atomic      Atomic             Coordinates (Angstroms)
 Number     Number       Type             X           Y           Z
 ---------------------------------------------------------------------
      1          8           0        3.564407   -2.132597   -0.000031
      2          6           0        2.841075   -1.154948   -0.000016
      3          6           0        2.333713   -0.474455   -1.268045
      4          6           0        0.785730   -0.521166   -1.261574
      5          6           0        2.805395    0.999413   -1.257310
      6          6           0        2.258418    1.701397    0.000031
      7          6           0        2.805385    0.999369    1.257352
      8          6           0        2.333703   -0.474499    1.268033
      9          6           0        0.785721   -0.521210    1.261548
     10          6           0        0.206898    0.183460   -0.000003
     11          6           0       -1.324913    0.086575   -0.000008
     12          6           0       -1.948644   -1.174239    0.000006
     13          6           0       -3.334666   -1.311410    0.000010
     14          6           0       -4.119013   -0.163921   -0.000001
     15          9           0       -5.463894   -0.285325    0.000002
     16          6           0       -3.550369    1.100790   -0.000012
     17          6           0       -2.157955    1.214662   -0.000016
     18          6           0        0.717160    1.646694    0.000025
     19          1           0        2.732365   -1.012405   -2.134197
     20          1           0        0.449465   -1.563997   -1.301508
     21          1           0        0.400344   -0.031394   -2.165744
     22          1           0        3.901977    1.047002   -1.275587
     23          1           0        2.446865    1.502575   -2.165530
     24          1           0        2.578236    2.751382    0.000051
     25          1           0        3.901968    1.046957    1.275638
     26          1           0        2.446848    1.502499    2.165588
     27          1           0        2.732350   -1.012479    2.134169
     28          1           0        0.449453   -1.564041    1.301442
     29          1           0        0.400328   -0.031469    2.165732
     30          1           0       -1.345471   -2.077617    0.000017
     31          1           0       -3.808936   -2.287487    0.000021
     32          1           0       -4.189471    1.977871   -0.000018
     33          1           0       -1.730537    2.210791   -0.000023
     34          1           0        0.334090    2.175741   -0.882837
     35          1           0        0.334086    2.175710    0.882902
 ---------------------------------------------------------------------

 SCF Done:  E(RB3LYP) =  -795.016476486     A.U. after   14 cycles

 The electronic state is 1-A.
 Alpha  occ. eigenvalues --  -24.70333 -19.13409 -10.27146 -10.26510 -10.21295
 Alpha  occ. eigenvalues --  -10.20225 -10.20024 -10.19963 -10.19896 -10.19823
 Alpha  occ. eigenvalues --  -10.19754 -10.19584 -10.19583 -10.19507 -10.19506
 Alpha  occ. eigenvalues --  -10.19375 -10.19374 -10.19077  -1.21463  -1.03232
 Alpha  occ. eigenvalues --   -0.88454  -0.86056  -0.79585  -0.78323  -0.76947
 Alpha  occ. eigenvalues --   -0.75681  -0.73051  -0.68076  -0.65695  -0.62479
 Alpha  occ. eigenvalues --   -0.61701  -0.60618  -0.58224  -0.57026  -0.54389
 Alpha  occ. eigenvalues --   -0.51288  -0.48732  -0.48530  -0.46455  -0.45746
 Alpha  occ. eigenvalues --   -0.45711  -0.45095  -0.44636  -0.44327  -0.43523
 Alpha  occ. eigenvalues --   -0.43250  -0.42239  -0.41071  -0.40577  -0.40457
 Alpha  occ. eigenvalues --   -0.39027  -0.37554  -0.36837  -0.36342  -0.36212
 Alpha  occ. eigenvalues --   -0.34583  -0.34304  -0.33748  -0.33687  -0.30976
 Alpha  occ. eigenvalues --   -0.30327  -0.29673  -0.26081  -0.23931  -0.23131
 Alpha virt. eigenvalues --   -0.01250  -0.01140  -0.00016   0.06452   0.08470
 Alpha virt. eigenvalues --    0.10953   0.11380   0.11806   0.12998   0.13042
 Alpha virt. eigenvalues --    0.13754   0.14393   0.14725   0.15425   0.16070

 Mulliken charges:
               1
     1  O   -0.458994
     2  C    0.453546
     3  C   -0.167151
     4  C   -0.288567
     5  C   -0.280197
     6  C   -0.096794
     7  C   -0.280197
     8  C   -0.167151
     9  C   -0.288568
    10  C   -0.000421
    11  C    0.165786
    12  C   -0.187235
    13  C   -0.201633
    14  C    0.381626
    15  F   -0.299110
    16  C   -0.204054
    17  C   -0.191402
    18  C   -0.294614
    19  H    0.144289
    20  H    0.146493
    21  H    0.144157
    22  H    0.145309
    23  H    0.138691
    24  H    0.127304
    25  H    0.145309
    26  H    0.138691
    27  H    0.144289
    28  H    0.146493
    29  H    0.144158
    30  H    0.137664
    31  H    0.147069
    32  H    0.145363
    33  H    0.136473
    34  H    0.136689
    35  H    0.136689
 Sum of Mulliken charges =  -0.00000

 Dipole moment (field-independent basis, Debye):
    X=             -0.2504    Y=              2.6666    Z=              0.0000  Tot=              2.6783
 Quadrupole moment (field-independent basis, Debye-Ang):
   XX=           -122.4320   YY=           -104.7132   ZZ=           -103.8273
   XY=             10.1476   XZ=              0.0002   YZ=             -0.0002

  Exact polarizability: 200.344  -2.650 153.282  -0.000  -0.000 111.146
 Approx polarizability: 276.043 -11.601 262.597  -0.000  -0.001 170.083

                      1                      2                      3
                      A                      A                      A
 Frequencies --     48.6740                69.6533                75.5458
 Red. masses --      4.1991                 5.2740                10.8772
 Frc consts  --      0.0059                 0.0151                 0.0366
 IR Inten    --      0.3261                 0.1093                 3.1640

                      4                      5                      6
                      A                      A                      A
 Frequencies --    146.1809               194.2059               247.9552
 Red. masses --      4.8484                 4.5776                 6.5749
 Frc consts  --      0.0610                 0.1017                 0.2382
 IR Inten    --      0.4433                 0.0075                 0.5938

                      7                      8                      9
                      A                      A                      A
 Frequencies --    279.8607               291.0483               295.5297
 Red. masses --      2.3555                 2.5467                 3.8670
 Frc consts  --      0.1087                 0.1271                 0.1990
 IR Inten    --      0.6543                 0.0489                 0.5680

                     10                     11                     12
                      A                      A                      A
 Frequencies --    374.5487               383.5426               399.4897
 Red. masses --      4.7577                 5.2599                 2.9536
 Frc consts  --      0.3932                 0.4559                 0.2777
 IR Inten    --      0.9190                 1.0147                 0.8980

                     13                     14                     15
                      A                      A                      A
 Frequencies --    412.6303               427.8950               436.2870
 Red. masses --      4.2785                 3.2174                 2.1238
 Frc consts  --      0.4292                 0.3471                 0.2382
 IR Inten    --      1.2072                 0.0627                 0.7787

                     16                     17                     18
                      A                      A                      A
 Frequencies --    447.5725               461.6073               472.6430
 Red. masses --      1.9987                 2.9063                 4.0150
 Frc consts  --      0.2359                 0.3649                 0.5284
 IR Inten    --      1.9796                 1.3918                10.1631

                     19                     20                     21
                      A                      A                      A
 Frequencies --    552.9194               563.0323               614.8775
 Red. masses --      2.4709                 7.3730                 5.5564
 Frc consts  --      0.4451                 1.3771                 1.2377
 IR Inten    --      7.0632                11.6089                 0.0665

                     22                     23                     24
                      A                      A                      A
 Frequencies --    636.6945               653.5009               680.9311
 Red. masses --      3.4650                 7.1459                 4.6659
 Frc consts  --      0.8276                 1.7980                 1.2747
 IR Inten    --      2.2488                 0.0593                 1.0568

                     25                     26                     27
                      A                      A                      A
 Frequencies --    715.8557               726.6738               787.9178
 Red. masses --      3.9465                 4.6257                 3.8201
 Frc consts  --      1.1915                 1.4392                 1.3973
 IR Inten    --      2.7580                 1.9338                 0.9329

                     28                     29                     30
                      A                      A                      A
 Frequencies --    805.9015               829.2120               830.8605
 Red. masses --      3.0181                 1.2463                 4.8512
 Frc consts  --      1.1549                 0.5049                 1.9731
 IR Inten    --      0.3276                 0.0793                10.0561

                     31                     32                     33
                      A                      A                      A
 Frequencies --    838.4044               865.6655               875.4410
 Red. masses --      1.7526                 2.3486                 4.0311
 Frc consts  --      0.7258                 1.0370                 1.8202
 IR Inten    --     43.6417                 3.3516                 7.1663

                     34                     35                     36
                      A                      A                      A
 Frequencies --    901.2641               901.9867               918.2728
 Red. masses --      1.5733                 1.6058                 2.3813
 Frc consts  --      0.7529                 0.7698                 1.1831
 IR Inten    --      0.3601                 2.1135                 6.0991

                     37                     38                     39
                      A                      A                      A
 Frequencies --    940.5139               959.5590               964.7487
 Red. masses --      1.5033                 1.3788                 1.6679
 Frc consts  --      0.7835                 0.7480                 0.9146
 IR Inten    --      0.2516                 0.0369                 0.0078

                     40                     41                     42
                      A                      A                      A
 Frequencies --    978.1203               986.0224              1017.9505
 Red. masses --      2.2705                 2.2036                 2.0684
 Frc consts  --      1.2799                 1.2623                 1.2628
 IR Inten    --      1.1252                 1.0775                 2.5846

                     43                     44                     45
                      A                      A                      A
 Frequencies --   1033.1300              1047.4957              1050.6278
 Red. masses --      3.6215                 3.2116                 2.3300
 Frc consts  --      2.2775                 2.0762                 1.5153
 IR Inten    --      8.4350                 0.7264                 0.1755

                     46                     47                     48
                      A                      A                      A
 Frequencies --   1072.7229              1078.3038              1098.1106
 Red. masses --      2.0336                 1.7846                 1.7498
 Frc consts  --      1.3787                 1.2226                 1.2432
 IR Inten    --      1.2856                30.3150                 0.9573

                     49                     50                     51
                      A                      A                      A
 Frequencies --   1121.6381              1137.3117              1140.7617
 Red. masses --      1.5013                 1.2866                 1.3083
 Frc consts  --      1.1128                 0.9805                 1.0031
 IR Inten    --      0.4301                 5.9566                 0.0543

                     52                     53                     54
                      A                      A                      A
 Frequencies --   1164.0671              1200.0685              1206.3227
 Red. masses --      1.1010                 1.1919                 1.2324
 Frc consts  --      0.8790                 1.0114                 1.0567
 IR Inten    --      0.0092                23.4350                 3.1757

                     55                     56                     57
                      A                      A                      A
 Frequencies --   1234.1037              1239.7948              1269.5296
 Red. masses --      3.1066                 1.9279                 1.5320
 Frc consts  --      2.7876                 1.7460                 1.4548
 IR Inten    --      5.6445                 7.7187                 6.2284

                     58                     59                     60
                      A                      A                      A
 Frequencies --   1274.0263              1289.1715              1297.9077
 Red. masses --      1.6869                 3.5013                 1.3492
 Frc consts  --      1.6132                 3.4285                 1.3391
 IR Inten    --      2.6024                98.5606                 0.0279

                     61                     62                     63
                      A                      A                      A
 Frequencies --   1303.7714              1330.9377              1335.2285
 Red. masses --      1.6573                 1.5705                 1.9033
 Frc consts  --      1.6598                 1.6391                 1.9993
 IR Inten    --      2.1426                 5.4225                 5.0896

                     64                     65                     66
                      A                      A                      A
 Frequencies --   1340.5347              1347.3456              1359.4015
 Red. masses --      1.5551                 2.7209                 1.4222
 Frc consts  --      1.6465                 2.9102                 1.5485
 IR Inten    --      4.9335                 4.3551                 0.9312

                     67                     68                     69
                      A                      A                      A
 Frequencies --   1360.3136              1381.4297              1389.0731
 Red. masses --      1.5874                 1.6682                 1.5590
 Frc consts  --      1.7307                 1.8757                 1.7723
 IR Inten    --      2.0010                 2.9275                 0.0190

                     70                     71                     72
                      A                      A                      A
 Frequencies --   1396.4283              1398.0741              1413.2953
 Red. masses --      1.4971                 1.5269                 1.4586
 Frc consts  --      1.7200                 1.7584                 1.7166
 IR Inten    --      1.6275                 1.5575                 0.2336

                     73                     74                     75
                      A                      A                      A
 Frequencies --   1453.1637              1508.3232              1515.7218
 Red. masses --      3.0907                 1.0839                 1.0916
 Frc consts  --      3.8453                 1.4529                 1.4776
 IR Inten    --      1.2734                 0.0575                 5.4450

                     76                     77                     78
                      A                      A                      A
 Frequencies --   1521.9865              1524.1167              1543.2114
 Red. masses --      1.0920                 1.0955                 1.0917
 Frc consts  --      1.4904                 1.4994                 1.5318
 IR Inten    --     10.7894                 5.0924                 0.1256

                     79                     80                     81
                      A                      A                      A
 Frequencies --   1564.6513              1645.0461              1670.2808
 Red. masses --      2.5164                 6.8244                 5.9863
 Frc consts  --      3.6296                10.8810                 9.8397
 IR Inten    --    124.9563                 3.3532                29.3261

                     82                     83                     84
                      A                      A                      A
 Frequencies --   1821.1686              3028.0101              3033.5974
 Red. masses --     11.2395                 1.0605                 1.0648
 Frc consts  --     21.9632                 5.7289                 5.7735
 IR Inten    --    231.5454                18.9877                11.0491

                     85                     86                     87
                      A                      A                      A
 Frequencies --   3034.3233              3040.9749              3044.5458
 Red. masses --      1.0598                 1.0614                 1.0636
 Frc consts  --      5.7489                 5.7828                 5.8087
 IR Inten    --     29.1942                36.3919                34.3928

                     88                     89                     90
                      A                      A                      A
 Frequencies --   3055.0070              3069.3328              3073.6850
 Red. masses --      1.0795                 1.1046                 1.1048
 Frc consts  --      5.9363                 6.1313                 6.1499
 IR Inten    --     75.7176                 9.4979                30.9303

                     91                     92                     93
                      A                      A                      A
 Frequencies --   3076.4916              3084.1386              3087.1666
 Red. masses --      1.1040                 1.1022                 1.1010
 Frc consts  --      6.1562                 6.1773                 6.1823
 IR Inten    --     58.3318                26.2264                26.0460

                     94                     95                     96
                      A                      A                      A
 Frequencies --   3089.0010              3090.9663              3195.4359
 Red. masses --      1.0871                 1.0879                 1.0878
 Frc consts  --      6.1116                 6.1237                 6.5442
 IR Inten    --     28.6116                30.7782                11.9509

                     97                     98                     99
                      A                      A                      A
 Frequencies --   3213.9162              3221.6661              3229.5660
 Red. masses --      1.0883                 1.0938                 1.0931
 Frc consts  --      6.6230                 6.6891                 6.7171
 IR Inten    --      6.4974                 6.9065                 6.7568

 - Thermochemistry -
 -------------------
 Temperature   298.150 Kelvin.  Pressure   1.00000 Atm.
 Atom     1 has atomic number  8 and mass  15.99491

 Molecular mass:   244.12634 amu.
 Principal axes and moments of inertia in atomic units:
                           1         2         3
     Eigenvalues --  1656.522507616.935978194.41841
           X            0.99996   0.00916   0.00000
           Y           -0.00916   0.99996  -0.00000
           Z           -0.00000   0.00000   1.00000
 This molecule is an asymmetric top.
 Rotational symmetry number  1.
 Warning -- assumption of classical behavior for rotation
           may cause significant error
 Rotational temperatures (Kelvin)      0.05229     0.01137     0.01057
 Rotational constants (GHZ):           1.08948     0.23694     0.22024
 Zero-point vibrational energy     782104.2 (Joules/Mol)
                                  186.92740 (Kcal/Mol)
 Warning -- explicit consideration of  21 degrees of freedom as
           vibrations may cause significant error
 Vibrational temperatures:     70.03   100.22   108.69   210.32   279.42
          (Kelvin)            356.75   402.66   418.75   425.20   538.89
                              551.83   574.78   593.68   615.65   627.72
                              643.96   664.15   680.03   795.53   810.08
                              884.67   916.06   940.24   979.71  1029.96
                             1045.52  1133.64  1159.51  1193.05  1195.42
                             1206.28  1245.50  1259.56  1296.72  1297.76
                             1321.19  1353.19  1380.59  1388.06  1407.30
                             1418.67  1464.60  1486.44  1507.11  1511.62
                             1543.41  1551.44  1579.94  1613.79  1636.34
                             1641.30  1674.83  1726.63  1735.63  1775.60
                             1783.79  1826.57  1833.04  1854.83  1867.40
                             1875.84  1914.92  1921.10  1928.73  1938.53
                             1955.88  1957.19  1987.57  1998.57  2009.15
                             2011.52  2033.42  2090.78  2170.14  2180.79
                             2189.80  2192.86  2220.34  2251.18  2366.85
                             2403.16  2620.26  4356.63  4364.67  4365.71
                             4375.28  4380.42  4395.47  4416.09  4422.35
                             4426.39  4437.39  4441.74  4444.38  4447.21
                             4597.52  4624.11  4635.26  4646.63

 Zero-point correction=                           0.297888 (Hartree/Particle)
 Thermal correction to Energy=                    0.311265
 Thermal correction to Enthalpy=                  0.312209
 Thermal correction to Gibbs Free Energy=         0.257954
 Sum of electronic and zero-point Energies=           -794.718589
 Sum of electronic and thermal Energies=              -794.705211
 Sum of electronic and thermal Enthalpies=            -794.704267
 Sum of electronic and thermal Free Energies=         -794.758522

                     E (Thermal)             CV                S
                      KCal/Mol        Cal/Mol-Kelvin    Cal/Mol-Kelvin
 Total                  195.322             57.218            114.190
 Electronic               0.000              0.000              0.000
 Translational            0.889              2.981             42.378
 Rotational               0.889              2.981             33.002
 Vibrational            193.544             51.257             38.809
 Vibration     1          0.595              1.978              4.871
 Vibration     2          0.598              1.969              4.163
 Vibration     3          0.599              1.965              4.003
 Vibration     4          0.617              1.907              2.721
 Vibration     5          0.635              1.848              2.187
 Vibration     6          0.662              1.766              1.745
 Vibration     7          0.680              1.711              1.535
 Vibration     8          0.687              1.690              1.468
 Vibration     9          0.690              1.682              1.442
 Vibration    10          0.746              1.524              1.061
 Vibration    11          0.753              1.505              1.025
 Vibration    12          0.766              1.471              0.965
 Vibration    13          0.776              1.443              0.917
 Vibration    14          0.789              1.410              0.866
 Vibration    15          0.797              1.391              0.838
 Vibration    16          0.807              1.366              0.803
 Vibration    17          0.819              1.335              0.761
 Vibration    18          0.830              1.311              0.730
 Vibration    19          0.908              1.133              0.538
 Vibration    20          0.919              1.111              0.518
 Vibration    21          0.974              1.000              0.425

 Normal termination of Gaussian 16 at Fri Feb 23 23:09:56 2024.
