 Gaussian 16, Revision A.03,
 Gaussian 16:  EM64M-G16RevA.03 25-Dec-2016

 ---------------------
 # freq b3lyp/6-31g(d)
 ---------------------

 ---------
 good luck
 ---------
 Symbolic Z-matrix:
 Charge =  0 Multiplicity = 1

                         Standard orientation:
 ---------------------------------------------------------------------
 Center     Atomic      Atomic             Coordinates (Angstroms)
 Number     Number       Type             X           Y           Z
 ---------------------------------------------------------------------
      1          8           0       -3.688713   -1.498700   -1.385279
      2          6           0       -2.905222   -0.812677   -0.757136
      3          6           0       -2.393018   -1.165389    0.635379
      4          6           0       -0.849377   -1.277272    0.582187
      5          6           0       -2.800079   -0.030566    1.606556
      6          6           0       -2.186074    1.297353    1.125283
      7          6           0       -2.719126    1.627427   -0.282995
      8          6           0       -2.321809    0.499556   -1.267913
      9          6           0       -0.779491    0.366707   -1.308100
     10          6           0       -0.204874    0.048385    0.103234
     11          6           0        1.326443   -0.027682    0.041677
     12          6           0        2.046877   -1.181222    0.384039
     13          6           0        3.441819   -1.223507    0.319506
     14          6           0        4.128013   -0.091958   -0.094524
     15          9           0        5.476374   -0.121818   -0.160259
     16          6           0        3.457961    1.074639   -0.443880
     17          6           0        2.067168    1.094136   -0.372115
     18          6           0       -0.649950    1.173245    1.082531
     19          1           0       -2.835411   -2.120365    0.936270
     20          1           0       -0.567120   -2.098891   -0.088601
     21          1           0       -0.481129   -1.537834    1.583403
     22          1           0       -3.893817    0.047827    1.658249
     23          1           0       -2.447080   -0.272725    2.618149
     24          1           0       -2.464013    2.101747    1.818607
     25          1           0       -3.810695    1.741511   -0.261479
     26          1           0       -2.304206    2.581322   -0.636386
     27          1           0       -2.719190    0.691469   -2.269778
     28          1           0       -0.484540   -0.423866   -2.010037
     29          1           0       -0.352870    1.302075   -1.690893
     30          1           0        1.527635   -2.075393    0.709454
     31          1           0        3.993041   -2.119651    0.585526
     32          1           0        4.022798    1.944024   -0.764569
     33          1           0        1.553432    2.010821   -0.647201
     34          1           0       -0.212042    2.131453    0.776444
     35          1           0       -0.258031    0.955383    2.085034
 ---------------------------------------------------------------------

 SCF Done:  E(RB3LYP) =  -795.016316787     A.U. after   14 cycles

 The electronic state is 1-A.
 Alpha  occ. eigenvalues --  -24.70357 -19.13391 -10.27170 -10.26486 -10.21295
 Alpha  occ. eigenvalues --  -10.20245 -10.20069 -10.19982 -10.19866 -10.19828
 Alpha  occ. eigenvalues --  -10.19765 -10.19648 -10.19586 -10.19572 -10.19508
 Alpha  occ. eigenvalues --  -10.19418 -10.19382 -10.19005  -1.21488  -1.03210
 Alpha  occ. eigenvalues --   -0.88460  -0.86074  -0.79594  -0.78378  -0.76855
 Alpha  occ. eigenvalues --   -0.75772  -0.73047  -0.68236  -0.65309  -0.62768
 Alpha  occ. eigenvalues --   -0.62081  -0.60214  -0.58257  -0.57091  -0.54371
 Alpha  occ. eigenvalues --   -0.51305  -0.48825  -0.48471  -0.46539  -0.45991
 Alpha  occ. eigenvalues --   -0.45720  -0.45210  -0.44535  -0.44067  -0.43302
 Alpha  occ. eigenvalues --   -0.43253  -0.42143  -0.41524  -0.40437  -0.40209
 Alpha  occ. eigenvalues --   -0.39303  -0.37586  -0.36821  -0.36291  -0.36117
 Alpha  occ. eigenvalues --   -0.35136  -0.34047  -0.33891  -0.33542  -0.30635
 Alpha  occ. eigenvalues --   -0.30390  -0.29852  -0.26109  -0.23944  -0.23123
 Alpha virt. eigenvalues --   -0.01493  -0.00882  -0.00040   0.06343   0.08611
 Alpha virt. eigenvalues --    0.10592   0.11426   0.12344   0.12660   0.12997
 Alpha virt. eigenvalues --    0.13995   0.14325   0.14843   0.15066   0.15484

 Mulliken charges:
               1
     1  O   -0.458692
     2  C    0.454796
     3  C   -0.167454
     4  C   -0.309298
     5  C   -0.280429
     6  C   -0.095970
     7  C   -0.281488
     8  C   -0.166808
     9  C   -0.288605
    10  C   -0.000541
    11  C    0.166762
    12  C   -0.191868
    13  C   -0.203770
    14  C    0.381713
    15  F   -0.299024
    16  C   -0.201615
    17  C   -0.184933
    18  C   -0.273813
    19  H    0.143569
    20  H    0.150172
    21  H    0.142739
    22  H    0.145712
    23  H    0.138819
    24  H    0.128037
    25  H    0.145900
    26  H    0.136728
    27  H    0.144322
    28  H    0.151121
    29  H    0.139483
    30  H    0.138014
    31  H    0.146240
    32  H    0.145993
    33  H    0.133588
    34  H    0.132957
    35  H    0.137645
 Sum of Mulliken charges =  -0.00000

 Dipole moment (field-independent basis, Debye):
    X=              0.4036    Y=              1.8709    Z=              1.7370  Tot=              2.5847
 Quadrupole moment (field-independent basis, Debye-Ang):
   XX=           -123.7311   YY=           -101.4035   ZZ=           -106.4628
   XY=             -7.7844   XZ=             -7.2475   YZ=             -5.7346

  Exact polarizability: 200.678   0.339 147.564  -0.218 -10.046 116.438
 Approx polarizability: 276.702   5.186 249.223   3.288 -20.082 182.598

                      1                      2                      3
                      A                      A                      A
 Frequencies --     48.5846                62.8660                93.9058
 Red. masses --      4.2322                 6.7160                 7.4062
 Frc consts  --      0.0059                 0.0156                 0.0385
 IR Inten    --      0.3191                 1.3292                 2.1376

                      4                      5                      6
                      A                      A                      A
 Frequencies --    125.8574               205.3732               249.2699
 Red. masses --      4.6805                 5.0097                 6.5471
 Frc consts  --      0.0437                 0.1245                 0.2397
 IR Inten    --      0.4374                 0.2198                 0.5994

                      7                      8                      9
                      A                      A                      A
 Frequencies --    264.4160               281.5893               330.2109
 Red. masses --      2.9213                 2.3670                 3.3901
 Frc consts  --      0.1203                 0.1106                 0.2178
 IR Inten    --      0.3528                 0.5828                 0.0568

                     10                     11                     12
                      A                      A                      A
 Frequencies --    363.1855               375.9412               399.6058
 Red. masses --      3.8526                 4.0802                 4.8520
 Frc consts  --      0.2994                 0.3398                 0.4565
 IR Inten    --      0.3214                 1.1817                 0.4503

                     13                     14                     15
                      A                      A                      A
 Frequencies --    419.1424               427.2836               431.7107
 Red. masses --      3.1845                 3.1614                 2.2446
 Frc consts  --      0.3296                 0.3401                 0.2465
 IR Inten    --      0.7487                 0.0624                 0.4195

                     16                     17                     18
                      A                      A                      A
 Frequencies --    448.3658               452.3831               483.1385
 Red. masses --      1.9893                 3.2439                 3.5392
 Frc consts  --      0.2356                 0.3911                 0.4867
 IR Inten    --      0.9035                 7.5750                 4.7626

                     19                     20                     21
                      A                      A                      A
 Frequencies --    551.1787               562.5301               617.1001
 Red. masses --      2.5009                 7.2759                 5.4662
 Frc consts  --      0.4476                 1.3565                 1.2264
 IR Inten    --      9.4086                12.1023                 0.0782

                     22                     23                     24
                      A                      A                      A
 Frequencies --    635.4268               654.8991               681.5620
 Red. masses --      3.7589                 6.5273                 4.6537
 Frc consts  --      0.8942                 1.6494                 1.2737
 IR Inten    --      1.3453                 0.4649                 0.9770

                     25                     26                     27
                      A                      A                      A
 Frequencies --    718.9585               726.0968               788.1784
 Red. masses --      4.0078                 4.5864                 3.7713
 Frc consts  --      1.2206                 1.4247                 1.3804
 IR Inten    --      3.0467                 1.6319                 1.0904

                     28                     29                     30
                      A                      A                      A
 Frequencies --    800.8937               828.9716               831.7449
 Red. masses --      2.9418                 1.2897                 4.0518
 Frc consts  --      1.1118                 0.5222                 1.6515
 IR Inten    --      0.9962                 0.5340                12.0017

                     31                     32                     33
                      A                      A                      A
 Frequencies --    842.1814               861.2499               876.7187
 Red. masses --      1.7590                 2.5541                 3.9244
 Frc consts  --      0.7351                 1.1162                 1.7772
 IR Inten    --     43.8676                 2.3271                 6.2036

                     34                     35                     36
                      A                      A                      A
 Frequencies --    896.1623               904.0825               915.7683
 Red. masses --      1.5968                 1.5824                 2.1675
 Frc consts  --      0.7555                 0.7621                 1.0710
 IR Inten    --      2.5088                 0.2131                 2.9076

                     37                     38                     39
                      A                      A                      A
 Frequencies --    947.2169               958.5312               959.9056
 Red. masses --      1.4950                 1.4056                 1.7695
 Frc consts  --      0.7903                 0.7609                 0.9606
 IR Inten    --      1.0629                 0.0557                 0.2117

                     40                     41                     42
                      A                      A                      A
 Frequencies --    978.4617               985.2414              1017.6537
 Red. masses --      2.2835                 2.1645                 2.0537
 Frc consts  --      1.2881                 1.2379                 1.2531
 IR Inten    --      2.0072                 0.7445                 2.5868

                     43                     44                     45
                      A                      A                      A
 Frequencies --   1033.1283              1047.7259              1051.6573
 Red. masses --      3.6561                 3.2827                 2.2826
 Frc consts  --      2.2992                 2.1232                 1.4874
 IR Inten    --      8.4418                 0.9761                 0.0633

                     46                     47                     48
                      A                      A                      A
 Frequencies --   1071.6218              1079.9942              1096.2437
 Red. masses --      1.9693                 1.8720                 1.7566
 Frc consts  --      1.3325                 1.2865                 1.2438
 IR Inten    --      5.3007                24.0598                 0.7439

                     49                     50                     51
                      A                      A                      A
 Frequencies --   1124.3145              1133.8434              1139.6556
 Red. masses --      1.4564                 1.3552                 1.2261
 Frc consts  --      1.0847                 1.0265                 0.9382
 IR Inten    --      0.6226                 2.5684                 3.3950

                     52                     53                     54
                      A                      A                      A
 Frequencies --   1165.1386              1200.2051              1210.6392
 Red. masses --      1.1091                 1.2188                 1.1493
 Frc consts  --      0.8871                 1.0344                 0.9925
 IR Inten    --      0.0491                24.5526                 0.6951

                     55                     56                     57
                      A                      A                      A
 Frequencies --   1229.3444              1240.4264              1269.3899
 Red. masses --      3.2571                 2.0332                 1.5360
 Frc consts  --      2.9002                 1.8432                 1.4583
 IR Inten    --      5.0397                 8.6944                 5.8464

                     58                     59                     60
                      A                      A                      A
 Frequencies --   1274.6988              1288.3797              1297.5766
 Red. masses --      1.6161                 3.1919                 1.4880
 Frc consts  --      1.5471                 3.1217                 1.4761
 IR Inten    --      1.2663                93.1542                10.3159

                     61                     62                     63
                      A                      A                      A
 Frequencies --   1306.6482              1330.1310              1338.4554
 Red. masses --      1.6575                 1.5756                 1.9497
 Frc consts  --      1.6673                 1.6424                 2.0579
 IR Inten    --      4.4835                 3.3707                 3.8630

                     64                     65                     66
                      A                      A                      A
 Frequencies --   1339.8133              1346.8912              1354.0985
 Red. masses --      1.3226                 3.9584                 1.5608
 Frc consts  --      1.3988                 4.2310                 1.6862
 IR Inten    --      4.0119                 2.8345                 1.0688

                     67                     68                     69
                      A                      A                      A
 Frequencies --   1362.6037              1382.4290              1388.7287
 Red. masses --      1.4015                 1.7174                 1.4874
 Frc consts  --      1.5332                 1.9338                 1.6901
 IR Inten    --      0.2110                 1.9807                 1.1845

                     70                     71                     72
                      A                      A                      A
 Frequencies --   1395.2483              1399.9638              1411.0726
 Red. masses --      1.5155                 1.5446                 1.4480
 Frc consts  --      1.7383                 1.7836                 1.6988
 IR Inten    --      1.9244                 1.3442                 0.0327

                     73                     74                     75
                      A                      A                      A
 Frequencies --   1452.9817              1509.0114              1512.7981
 Red. masses --      3.0955                 1.0855                 1.0897
 Frc consts  --      3.8504                 1.4564                 1.4693
 IR Inten    --      1.2199                 0.6269                 2.6577

                     76                     77                     78
                      A                      A                      A
 Frequencies --   1522.1514              1526.4908              1543.0015
 Red. masses --      1.0943                 1.0942                 1.0911
 Frc consts  --      1.4939                 1.5022                 1.5306
 IR Inten    --      8.9663                 8.2015                 0.5331

                     79                     80                     81
                      A                      A                      A
 Frequencies --   1564.6310              1644.9832              1670.3287
 Red. masses --      2.5174                 6.8253                 5.9917
 Frc consts  --      3.6310                10.8817                 9.8493
 IR Inten    --    125.5009                 3.4087                29.5656

                     82                     83                     84
                      A                      A                      A
 Frequencies --   1821.7131              3032.2041              3032.7937
 Red. masses --     11.2228                 1.0615                 1.0627
 Frc consts  --     21.9438                 5.7502                 5.7589
 IR Inten    --    236.9587                16.2987                 5.7300

                     85                     86                     87
                      A                      A                      A
 Frequencies --   3034.3287              3037.6190              3044.9637
 Red. masses --      1.0609                 1.0623                 1.0613
 Frc consts  --      5.7549                 5.7753                 5.7976
 IR Inten    --     36.8203                30.1740                42.1426

                     88                     89                     90
                      A                      A                      A
 Frequencies --   3055.2997              3071.7677              3074.8667
 Red. masses --      1.0781                 1.1049                 1.1045
 Frc consts  --      5.9294                 6.1426                 6.1527
 IR Inten    --     74.4885                 2.7626                17.0210

                     91                     92                     93
                      A                      A                      A
 Frequencies --   3076.3551              3079.9121              3084.2091
 Red. masses --      1.1039                 1.1039                 1.1046
 Frc consts  --      6.1554                 6.1696                 6.1907
 IR Inten    --     52.0541                40.0738                35.8424

                     94                     95                     96
                      A                      A                      A
 Frequencies --   3089.2337              3091.2163              3194.6157
 Red. masses --      1.0862                 1.0868                 1.0877
 Frc consts  --      6.1073                 6.1184                 6.5404
 IR Inten    --     38.7769                22.0589                12.9176

                     97                     98                     99
                      A                      A                      A
 Frequencies --   3214.1326              3221.2572              3229.4586
 Red. masses --      1.0882                 1.0938                 1.0932
 Frc consts  --      6.6234                 6.6873                 6.7176
 IR Inten    --      6.6096                 7.2648                 6.3504

 - Thermochemistry -
 -------------------
 Temperature   298.150 Kelvin.  Pressure   1.00000 Atm.
 Atom     1 has atomic number  8 and mass  15.99491

 Molecular mass:   244.12634 amu.
 Principal axes and moments of inertia in atomic units:
                           1         2         3
     Eigenvalues --  1633.059227809.721498084.06144
           X            0.99995  -0.00779  -0.00547
           Y            0.00720   0.99489  -0.10070
           Z            0.00623   0.10065   0.99490
 This molecule is an asymmetric top.
 Rotational symmetry number  1.
 Warning -- assumption of classical behavior for rotation
           may cause significant error
 Rotational temperatures (Kelvin)      0.05304     0.01109     0.01071
 Rotational constants (GHZ):           1.10513     0.23109     0.22325
 Zero-point vibrational energy     782034.4 (Joules/Mol)
                                  186.91070 (Kcal/Mol)
 Warning -- explicit consideration of  21 degrees of freedom as
           vibrations may cause significant error
 Vibrational temperatures:     69.90    90.45   135.11   181.08   295.49
          (Kelvin)            358.64   380.44   405.14   475.10   522.54
                              540.90   574.94   603.05   614.77   621.14
                              645.10   650.88   695.13   793.02   809.36
                              887.87   914.24   942.25   980.62  1034.42
                             1044.69  1134.01  1152.31  1192.71  1196.70
                             1211.71  1239.15  1261.40  1289.38  1300.77
                             1317.59  1362.83  1379.11  1381.09  1407.79
                             1417.54  1464.18  1486.44  1507.44  1513.10
                             1541.82  1553.87  1577.25  1617.64  1631.35
                             1639.71  1676.37  1726.83  1741.84  1768.75
                             1784.70  1826.37  1834.01  1853.69  1866.92
                             1879.98  1913.76  1925.74  1927.69  1937.88
                             1948.25  1960.48  1989.01  1998.07  2007.45
                             2014.24  2030.22  2090.52  2171.13  2176.58
                             2190.04  2196.28  2220.04  2251.16  2366.76
                             2403.23  2621.04  4362.67  4363.51  4365.72
                             4370.46  4381.02  4395.89  4419.59  4424.05
                             4426.19  4431.31  4437.49  4444.72  4447.57
                             4596.34  4624.42  4634.67  4646.47

 Zero-point correction=                           0.297861 (Hartree/Particle)
 Thermal correction to Energy=                    0.311242
 Thermal correction to Enthalpy=                  0.312186
 Thermal correction to Gibbs Free Energy=         0.257935
 Sum of electronic and zero-point Energies=           -794.718456
 Sum of electronic and thermal Energies=              -794.705075
 Sum of electronic and thermal Enthalpies=            -794.704130
 Sum of electronic and thermal Free Energies=         -794.758382

                     E (Thermal)             CV                S
                      KCal/Mol        Cal/Mol-Kelvin    Cal/Mol-Kelvin
 Total                  195.307             57.229            114.182
 Electronic               0.000              0.000              0.000
 Translational            0.889              2.981             42.378
 Rotational               0.889              2.981             33.000
 Vibrational            193.530             51.267             38.804
 Vibration     1          0.595              1.978              4.874
 Vibration     2          0.597              1.972              4.365
 Vibration     3          0.603              1.954              3.577
 Vibration     4          0.611              1.927              3.008
 Vibration     5          0.640              1.832              2.084
 Vibration     6          0.662              1.764              1.736
 Vibration     7          0.671              1.738              1.632
 Vibration     8          0.681              1.708              1.524
 Vibration     9          0.713              1.615              1.259
 Vibration    10          0.737              1.548              1.108
 Vibration    11          0.747              1.521              1.055
 Vibration    12          0.766              1.471              0.964
 Vibration    13          0.782              1.429              0.895
 Vibration    14          0.789              1.411              0.868
 Vibration    15          0.793              1.401              0.853
 Vibration    16          0.807              1.364              0.801
 Vibration    17          0.811              1.356              0.789
 Vibration    18          0.839              1.287              0.702
 Vibration    19          0.906              1.137              0.542
 Vibration    20          0.918              1.112              0.519
 Vibration    21          0.977              0.996              0.421

 Normal termination of Gaussian 16 at Fri Feb 23 23:03:27 2024.
