 Gaussian 16, Revision A.03,
 Gaussian 16:  EM64M-G16RevA.03 25-Dec-2016

 ---------------------
 # freq b3lyp/6-31g(d)
 ---------------------

 ---------
 good luck
 ---------
 Symbolic Z-matrix:
 Charge =  0 Multiplicity = 1

                         Standard orientation:
 ---------------------------------------------------------------------
 Center     Atomic      Atomic             Coordinates (Angstroms)
 Number     Number       Type             X           Y           Z
 ---------------------------------------------------------------------
      1          8           0        3.688714   -1.498691   -1.385287
      2          6           0        2.905223   -0.812672   -0.757139
      3          6           0        2.321807    0.499562   -1.267911
      4          6           0        0.779489    0.366710   -1.308097
      5          6           0        2.719123    1.627429   -0.282988
      6          6           0        2.186073    1.297349    1.125288
      7          6           0        2.800081   -0.030570    1.606555
      8          6           0        2.393022   -1.165391    0.635374
      9          6           0        0.849380   -1.277277    0.582183
     10          6           0        0.204874    0.048381    0.103236
     11          6           0       -1.326445   -0.027685    0.041678
     12          6           0       -2.067166    1.094133   -0.372116
     13          6           0       -3.457958    1.074640   -0.443881
     14          6           0       -4.128012   -0.091956   -0.094524
     15          9           0       -5.476375   -0.121813   -0.160260
     16          6           0       -3.441822   -1.223507    0.319506
     17          6           0       -2.046879   -1.181224    0.384040
     18          6           0        0.649948    1.173238    1.082536
     19          1           0        2.719186    0.691480   -2.269774
     20          1           0        0.352863    1.302078   -1.690886
     21          1           0        0.484539   -0.423863   -2.010035
     22          1           0        2.304203    2.581325   -0.636374
     23          1           0        3.810693    1.741513   -0.261472
     24          1           0        2.464012    2.101741    1.818615
     25          1           0        2.447086   -0.272733    2.618148
     26          1           0        3.893820    0.047826    1.658246
     27          1           0        2.835416   -2.120365    0.936261
     28          1           0        0.481133   -1.537845    1.583397
     29          1           0        0.567124   -2.098893   -0.088609
     30          1           0       -1.553426    2.010815   -0.647202
     31          1           0       -4.022793    1.944025   -0.764571
     32          1           0       -3.993045   -2.119648    0.585526
     33          1           0       -1.527639   -2.075396    0.709455
     34          1           0        0.258031    0.955372    2.085038
     35          1           0        0.212038    2.131447    0.776454
 ---------------------------------------------------------------------

 SCF Done:  E(RB3LYP) =  -795.016316788     A.U. after   14 cycles

 The electronic state is 1-A.
 Alpha  occ. eigenvalues --  -24.70357 -19.13391 -10.27170 -10.26486 -10.21295
 Alpha  occ. eigenvalues --  -10.20245 -10.20069 -10.19982 -10.19866 -10.19828
 Alpha  occ. eigenvalues --  -10.19765 -10.19648 -10.19586 -10.19572 -10.19508
 Alpha  occ. eigenvalues --  -10.19418 -10.19382 -10.19005  -1.21488  -1.03210
 Alpha  occ. eigenvalues --   -0.88460  -0.86074  -0.79594  -0.78378  -0.76855
 Alpha  occ. eigenvalues --   -0.75772  -0.73047  -0.68236  -0.65309  -0.62768
 Alpha  occ. eigenvalues --   -0.62081  -0.60214  -0.58257  -0.57091  -0.54371
 Alpha  occ. eigenvalues --   -0.51305  -0.48825  -0.48471  -0.46539  -0.45991
 Alpha  occ. eigenvalues --   -0.45720  -0.45210  -0.44535  -0.44067  -0.43302
 Alpha  occ. eigenvalues --   -0.43253  -0.42143  -0.41524  -0.40437  -0.40209
 Alpha  occ. eigenvalues --   -0.39303  -0.37586  -0.36821  -0.36291  -0.36117
 Alpha  occ. eigenvalues --   -0.35136  -0.34047  -0.33891  -0.33542  -0.30635
 Alpha  occ. eigenvalues --   -0.30390  -0.29852  -0.26109  -0.23944  -0.23123
 Alpha virt. eigenvalues --   -0.01493  -0.00882  -0.00040   0.06343   0.08611
 Alpha virt. eigenvalues --    0.10592   0.11426   0.12344   0.12660   0.12997
 Alpha virt. eigenvalues --    0.13995   0.14325   0.14843   0.15066   0.15484

 Mulliken charges:
               1
     1  O   -0.458692
     2  C    0.454796
     3  C   -0.166808
     4  C   -0.288605
     5  C   -0.281488
     6  C   -0.095970
     7  C   -0.280429
     8  C   -0.167454
     9  C   -0.309298
    10  C   -0.000541
    11  C    0.166762
    12  C   -0.184933
    13  C   -0.201615
    14  C    0.381712
    15  F   -0.299024
    16  C   -0.203770
    17  C   -0.191869
    18  C   -0.273813
    19  H    0.144322
    20  H    0.139483
    21  H    0.151121
    22  H    0.136728
    23  H    0.145900
    24  H    0.128037
    25  H    0.138819
    26  H    0.145712
    27  H    0.143569
    28  H    0.142739
    29  H    0.150171
    30  H    0.133588
    31  H    0.145993
    32  H    0.146240
    33  H    0.138014
    34  H    0.137645
    35  H    0.132957
 Sum of Mulliken charges =  -0.00000

 Dipole moment (field-independent basis, Debye):
    X=             -0.4036    Y=              1.8709    Z=              1.7371  Tot=              2.5847
 Quadrupole moment (field-independent basis, Debye-Ang):
   XX=           -123.7311   YY=           -101.4034   ZZ=           -106.4628
   XY=              7.7844   XZ=              7.2475   YZ=             -5.7346

  Exact polarizability: 200.678  -0.339 147.563   0.218 -10.046 116.438
 Approx polarizability: 276.702  -5.186 249.223  -3.288 -20.082 182.597

                      1                      2                      3
                      A                      A                      A
 Frequencies --     48.5826                62.8655                93.9057
 Red. masses --      4.2320                 6.7163                 7.4061
 Frc consts  --      0.0059                 0.0156                 0.0385
 IR Inten    --      0.3191                 1.3292                 2.1375

                      4                      5                      6
                      A                      A                      A
 Frequencies --    125.8571               205.3734               249.2694
 Red. masses --      4.6805                 5.0097                 6.5471
 Frc consts  --      0.0437                 0.1245                 0.2397
 IR Inten    --      0.4374                 0.2198                 0.5994

                      7                      8                      9
                      A                      A                      A
 Frequencies --    264.4158               281.5886               330.2109
 Red. masses --      2.9213                 2.3670                 3.3902
 Frc consts  --      0.1203                 0.1106                 0.2178
 IR Inten    --      0.3528                 0.5828                 0.0568

                     10                     11                     12
                      A                      A                      A
 Frequencies --    363.1855               375.9411               399.6057
 Red. masses --      3.8526                 4.0802                 4.8520
 Frc consts  --      0.2994                 0.3398                 0.4565
 IR Inten    --      0.3214                 1.1817                 0.4503

                     13                     14                     15
                      A                      A                      A
 Frequencies --    419.1424               427.2831               431.7102
 Red. masses --      3.1845                 3.1614                 2.2446
 Frc consts  --      0.3296                 0.3401                 0.2465
 IR Inten    --      0.7487                 0.0624                 0.4195

                     16                     17                     18
                      A                      A                      A
 Frequencies --    448.3655               452.3826               483.1381
 Red. masses --      1.9893                 3.2439                 3.5392
 Frc consts  --      0.2356                 0.3911                 0.4867
 IR Inten    --      0.9036                 7.5749                 4.7626

                     19                     20                     21
                      A                      A                      A
 Frequencies --    551.1776               562.5297               617.1001
 Red. masses --      2.5008                 7.2760                 5.4662
 Frc consts  --      0.4476                 1.3565                 1.2264
 IR Inten    --      9.4088                12.1023                 0.0782

                     22                     23                     24
                      A                      A                      A
 Frequencies --    635.4268               654.8991               681.5619
 Red. masses --      3.7589                 6.5273                 4.6537
 Frc consts  --      0.8942                 1.6494                 1.2737
 IR Inten    --      1.3454                 0.4650                 0.9771

                     25                     26                     27
                      A                      A                      A
 Frequencies --    718.9587               726.0965               788.1784
 Red. masses --      4.0078                 4.5864                 3.7713
 Frc consts  --      1.2206                 1.4247                 1.3804
 IR Inten    --      3.0467                 1.6319                 1.0904

                     28                     29                     30
                      A                      A                      A
 Frequencies --    800.8936               828.9683               831.7443
 Red. masses --      2.9418                 1.2896                 4.0530
 Frc consts  --      1.1118                 0.5221                 1.6520
 IR Inten    --      0.9964                 0.5337                12.0039

                     31                     32                     33
                      A                      A                      A
 Frequencies --    842.1797               861.2499               876.7185
 Red. masses --      1.7590                 2.5542                 3.9244
 Frc consts  --      0.7351                 1.1162                 1.7772
 IR Inten    --     43.8658                 2.3267                 6.2037

                     34                     35                     36
                      A                      A                      A
 Frequencies --    896.1615               904.0827               915.7673
 Red. masses --      1.5968                 1.5824                 2.1675
 Frc consts  --      0.7555                 0.7621                 1.0710
 IR Inten    --      2.5088                 0.2130                 2.9076

                     37                     38                     39
                      A                      A                      A
 Frequencies --    947.2148               958.5294               959.9057
 Red. masses --      1.4950                 1.4059                 1.7692
 Frc consts  --      0.7903                 0.7610                 0.9604
 IR Inten    --      1.0628                 0.0559                 0.2116

                     40                     41                     42
                      A                      A                      A
 Frequencies --    978.4619               985.2410              1017.6547
 Red. masses --      2.2835                 2.1645                 2.0537
 Frc consts  --      1.2881                 1.2379                 1.2531
 IR Inten    --      2.0073                 0.7445                 2.5869

                     43                     44                     45
                      A                      A                      A
 Frequencies --   1033.1282              1047.7261              1051.6571
 Red. masses --      3.6561                 3.2827                 2.2826
 Frc consts  --      2.2992                 2.1231                 1.4874
 IR Inten    --      8.4418                 0.9761                 0.0634

                     46                     47                     48
                      A                      A                      A
 Frequencies --   1071.6218              1079.9940              1096.2429
 Red. masses --      1.9693                 1.8720                 1.7566
 Frc consts  --      1.3324                 1.2865                 1.2438
 IR Inten    --      5.3024                24.0579                 0.7439

                     49                     50                     51
                      A                      A                      A
 Frequencies --   1124.3140              1133.8428              1139.6551
 Red. masses --      1.4564                 1.3552                 1.2261
 Frc consts  --      1.0847                 1.0265                 0.9382
 IR Inten    --      0.6227                 2.5689                 3.3946

                     52                     53                     54
                      A                      A                      A
 Frequencies --   1165.1387              1200.2037              1210.6387
 Red. masses --      1.1091                 1.2188                 1.1493
 Frc consts  --      0.8871                 1.0344                 0.9925
 IR Inten    --      0.0491                24.5531                 0.6950

                     55                     56                     57
                      A                      A                      A
 Frequencies --   1229.3423              1240.4256              1269.3885
 Red. masses --      3.2572                 2.0331                 1.5360
 Frc consts  --      2.9003                 1.8431                 1.4583
 IR Inten    --      5.0397                 8.6947                 5.8464

                     58                     59                     60
                      A                      A                      A
 Frequencies --   1274.6981              1288.3782              1297.5761
 Red. masses --      1.6161                 3.1920                 1.4880
 Frc consts  --      1.5472                 3.1217                 1.4761
 IR Inten    --      1.2660                93.1552                10.3146

                     61                     62                     63
                      A                      A                      A
 Frequencies --   1306.6477              1330.1312              1338.4547
 Red. masses --      1.6575                 1.5756                 1.9495
 Frc consts  --      1.6673                 1.6424                 2.0577
 IR Inten    --      4.4839                 3.3707                 3.8631

                     64                     65                     66
                      A                      A                      A
 Frequencies --   1339.8123              1346.8923              1354.0975
 Red. masses --      1.3226                 3.9585                 1.5609
 Frc consts  --      1.3988                 4.2310                 1.6863
 IR Inten    --      4.0125                 2.8343                 1.0684

                     67                     68                     69
                      A                      A                      A
 Frequencies --   1362.6034              1382.4291              1388.7291
 Red. masses --      1.4015                 1.7174                 1.4874
 Frc consts  --      1.5332                 1.9338                 1.6901
 IR Inten    --      0.2110                 1.9806                 1.1845

                     70                     71                     72
                      A                      A                      A
 Frequencies --   1395.2482              1399.9635              1411.0720
 Red. masses --      1.5155                 1.5446                 1.4480
 Frc consts  --      1.7383                 1.7836                 1.6988
 IR Inten    --      1.9243                 1.3442                 0.0327

                     73                     74                     75
                      A                      A                      A
 Frequencies --   1452.9816              1509.0116              1512.7979
 Red. masses --      3.0956                 1.0855                 1.0897
 Frc consts  --      3.8504                 1.4564                 1.4693
 IR Inten    --      1.2200                 0.6269                 2.6578

                     76                     77                     78
                      A                      A                      A
 Frequencies --   1522.1516              1526.4911              1543.0016
 Red. masses --      1.0943                 1.0942                 1.0911
 Frc consts  --      1.4939                 1.5022                 1.5306
 IR Inten    --      8.9664                 8.2014                 0.5330

                     79                     80                     81
                      A                      A                      A
 Frequencies --   1564.6305              1644.9844              1670.3287
 Red. masses --      2.5174                 6.8254                 5.9918
 Frc consts  --      3.6310                10.8818                 9.8494
 IR Inten    --    125.5017                 3.4083                29.5644

                     82                     83                     84
                      A                      A                      A
 Frequencies --   1821.7131              3032.2051              3032.7950
 Red. masses --     11.2228                 1.0615                 1.0627
 Frc consts  --     21.9438                 5.7502                 5.7589
 IR Inten    --    236.9590                16.2955                 5.7189

                     85                     86                     87
                      A                      A                      A
 Frequencies --   3034.3269              3037.6223              3044.9652
 Red. masses --      1.0609                 1.0623                 1.0613
 Frc consts  --      5.7548                 5.7753                 5.7976
 IR Inten    --     36.8452                30.1642                42.1493

                     88                     89                     90
                      A                      A                      A
 Frequencies --   3055.3009              3071.7649              3074.8657
 Red. masses --      1.0781                 1.1049                 1.1045
 Frc consts  --      5.9294                 6.1426                 6.1527
 IR Inten    --     74.4842                 2.7636                17.0445

                     91                     92                     93
                      A                      A                      A
 Frequencies --   3076.3518              3079.9138              3084.2105
 Red. masses --      1.1039                 1.1039                 1.1046
 Frc consts  --      6.1554                 6.1696                 6.1907
 IR Inten    --     52.0368                40.0663                35.8409

                     94                     95                     96
                      A                      A                      A
 Frequencies --   3089.2465              3091.2288              3194.6129
 Red. masses --      1.0862                 1.0868                 1.0877
 Frc consts  --      6.1073                 6.1185                 6.5404
 IR Inten    --     38.7753                22.0591                12.9173

                     97                     98                     99
                      A                      A                      A
 Frequencies --   3214.1447              3221.2601              3229.4687
 Red. masses --      1.0882                 1.0938                 1.0932
 Frc consts  --      6.6235                 6.6873                 6.7176
 IR Inten    --      6.6110                 7.2624                 6.3515

 - Thermochemistry -
 -------------------
 Temperature   298.150 Kelvin.  Pressure   1.00000 Atm.
 Atom     1 has atomic number  8 and mass  15.99491

 Molecular mass:   244.12634 amu.
 Principal axes and moments of inertia in atomic units:
                           1         2         3
     Eigenvalues --  1633.058357809.723438084.06066
           X            0.99995   0.00779   0.00547
           Y           -0.00720   0.99489  -0.10070
           Z           -0.00623   0.10065   0.99490
 This molecule is an asymmetric top.
 Rotational symmetry number  1.
 Warning -- assumption of classical behavior for rotation
           may cause significant error
 Rotational temperatures (Kelvin)      0.05304     0.01109     0.01071
 Rotational constants (GHZ):           1.10513     0.23109     0.22325
 Zero-point vibrational energy     782034.5 (Joules/Mol)
                                  186.91072 (Kcal/Mol)
 Warning -- explicit consideration of  21 degrees of freedom as
           vibrations may cause significant error
 Vibrational temperatures:     69.90    90.45   135.11   181.08   295.49
          (Kelvin)            358.64   380.44   405.14   475.10   522.54
                              540.90   574.94   603.05   614.77   621.13
                              645.10   650.88   695.13   793.02   809.35
                              887.87   914.24   942.25   980.62  1034.42
                             1044.69  1134.01  1152.31  1192.70  1196.69
                             1211.71  1239.15  1261.40  1289.38  1300.77
                             1317.58  1362.83  1379.11  1381.09  1407.79
                             1417.54  1464.18  1486.44  1507.44  1513.10
                             1541.82  1553.87  1577.25  1617.64  1631.35
                             1639.71  1676.37  1726.83  1741.84  1768.75
                             1784.70  1826.37  1834.01  1853.69  1866.92
                             1879.97  1913.76  1925.74  1927.69  1937.88
                             1948.24  1960.48  1989.01  1998.07  2007.45
                             2014.24  2030.22  2090.52  2171.13  2176.58
                             2190.04  2196.28  2220.04  2251.15  2366.77
                             2403.23  2621.04  4362.67  4363.52  4365.72
                             4370.46  4381.03  4395.90  4419.58  4424.05
                             4426.18  4431.31  4437.49  4444.74  4447.59
                             4596.34  4624.44  4634.67  4646.49

 Zero-point correction=                           0.297861 (Hartree/Particle)
 Thermal correction to Energy=                    0.311242
 Thermal correction to Enthalpy=                  0.312186
 Thermal correction to Gibbs Free Energy=         0.257935
 Sum of electronic and zero-point Energies=           -794.718456
 Sum of electronic and thermal Energies=              -794.705075
 Sum of electronic and thermal Enthalpies=            -794.704130
 Sum of electronic and thermal Free Energies=         -794.758382

                     E (Thermal)             CV                S
                      KCal/Mol        Cal/Mol-Kelvin    Cal/Mol-Kelvin
 Total                  195.307             57.229            114.183
 Electronic               0.000              0.000              0.000
 Translational            0.889              2.981             42.378
 Rotational               0.889              2.981             33.000
 Vibrational            193.530             51.267             38.805
 Vibration     1          0.595              1.978              4.874
 Vibration     2          0.597              1.972              4.365
 Vibration     3          0.603              1.954              3.577
 Vibration     4          0.611              1.927              3.008
 Vibration     5          0.640              1.832              2.084
 Vibration     6          0.662              1.764              1.736
 Vibration     7          0.671              1.738              1.632
 Vibration     8          0.681              1.708              1.524
 Vibration     9          0.713              1.615              1.259
 Vibration    10          0.737              1.548              1.108
 Vibration    11          0.747              1.521              1.055
 Vibration    12          0.766              1.471              0.964
 Vibration    13          0.782              1.429              0.895
 Vibration    14          0.789              1.411              0.868
 Vibration    15          0.793              1.401              0.853
 Vibration    16          0.807              1.364              0.801
 Vibration    17          0.811              1.356              0.789
 Vibration    18          0.839              1.287              0.702
 Vibration    19          0.906              1.137              0.542
 Vibration    20          0.918              1.112              0.519
 Vibration    21          0.977              0.996              0.421

 Normal termination of Gaussian 16 at Fri Feb 23 22:57:02 2024.
