 Gaussian 16, Revision A.03,
 Gaussian 16:  EM64M-G16RevA.03 25-Dec-2016

 ---------------------
 # freq b3lyp/6-31g(d)
 ---------------------

 ---------
 good luck
 ---------
 Symbolic Z-matrix:
 Charge =  0 Multiplicity = 1

                         Standard orientation:
 ---------------------------------------------------------------------
 Center     Atomic      Atomic             Coordinates (Angstroms)
 Number     Number       Type             X           Y           Z
 ---------------------------------------------------------------------
      1          8           0        0.389391    1.997442   -0.801993
      2          6           0       -0.077199    1.093464   -0.131926
      3          6           0        0.706055   -0.175473    0.230549
      4          6           0        2.192131   -0.095747   -0.189185
      5          6           0        2.912246   -1.451161   -0.106156
      6          6           0        2.942684    0.945418    0.658927
      7          6           0       -0.084797   -1.375606   -0.360021
      8          6           0       -1.549742   -1.399883    0.101865
      9          6           0       -2.301261   -0.102871   -0.236684
     10          6           0       -3.750834   -0.123800    0.259351
     11          6           0       -1.527300    1.110917    0.330892
     12          1           0        0.656032   -0.277675    1.328241
     13          1           0        2.215044    0.245383   -1.232583
     14          1           0        2.506620   -2.187605   -0.807368
     15          1           0        3.975511   -1.327279   -0.342136
     16          1           0        2.848886   -1.877239    0.904389
     17          1           0        2.480010    1.932191    0.582097
     18          1           0        2.959111    0.648933    1.716768
     19          1           0        3.983638    1.035599    0.327016
     20          1           0       -0.043106   -1.327100   -1.458029
     21          1           0        0.402011   -2.311996   -0.069610
     22          1           0       -1.584495   -1.559773    1.190626
     23          1           0       -2.065302   -2.255978   -0.352752
     24          1           0       -2.315667    0.001458   -1.332556
     25          1           0       -3.790406   -0.225417    1.351565
     26          1           0       -4.277024    0.799393   -0.009582
     27          1           0       -4.304267   -0.964864   -0.174950
     28          1           0       -1.553478    1.063797    1.430351
     29          1           0       -1.980143    2.057087    0.018792
 ---------------------------------------------------------------------

 SCF Done:  E(RB3LYP) =  -467.146644078     A.U. after   13 cycles

 The electronic state is 1-A.
 Alpha  occ. eigenvalues --  -19.13380 -10.26678 -10.20012 -10.19325 -10.19138
 Alpha  occ. eigenvalues --  -10.18844 -10.18748 -10.18466 -10.18085 -10.17134
 Alpha  occ. eigenvalues --  -10.16345  -1.03241  -0.84018  -0.80139  -0.74948
 Alpha  occ. eigenvalues --   -0.72559  -0.68245  -0.67540  -0.61299  -0.58051
 Alpha  occ. eigenvalues --   -0.56214  -0.52740  -0.48375  -0.46032  -0.44304
 Alpha  occ. eigenvalues --   -0.44148  -0.43351  -0.42791  -0.41374  -0.39507
 Alpha  occ. eigenvalues --   -0.39276  -0.39169  -0.37684  -0.37323  -0.35628
 Alpha  occ. eigenvalues --   -0.34754  -0.34465  -0.33292  -0.32699  -0.32039
 Alpha  occ. eigenvalues --   -0.31208  -0.30482  -0.23394
 Alpha virt. eigenvalues --   -0.01184   0.08653   0.09301   0.10092   0.12357
 Alpha virt. eigenvalues --    0.13641   0.14202   0.14639   0.14953   0.15796
 Alpha virt. eigenvalues --    0.16245   0.16661   0.17095   0.17576   0.18310

 Mulliken charges:
               1
     1  O   -0.453890
     2  C    0.441395
     3  C   -0.159907
     4  C   -0.059509
     5  C   -0.455091
     6  C   -0.457926
     7  C   -0.284636
     8  C   -0.263707
     9  C   -0.085687
    10  C   -0.444135
    11  C   -0.334034
    12  H    0.130154
    13  H    0.140835
    14  H    0.143976
    15  H    0.143502
    16  H    0.134860
    17  H    0.168254
    18  H    0.128149
    19  H    0.139037
    20  H    0.141486
    21  H    0.149088
    22  H    0.128744
    23  H    0.136910
    24  H    0.135172
    25  H    0.141270
    26  H    0.147879
    27  H    0.145206
    28  H    0.144408
    29  H    0.158197
 Sum of Mulliken charges =  -0.00000

 Dipole moment (field-independent basis, Debye):
    X=             -1.3076    Y=             -2.1858    Z=              1.1301  Tot=              2.7866
 Quadrupole moment (field-independent basis, Debye-Ang):
   XX=            -68.0283   YY=            -74.7161   ZZ=            -69.6593
   XY=             -1.6624   XZ=              0.4966   YZ=              3.1001

  Exact polarizability: 123.899   1.466 102.300  -1.624  -1.232  87.471
 Approx polarizability: 145.172   5.715 149.106  -4.435  -9.092 142.313

                      1                      2                      3
                      A                      A                      A
 Frequencies --     65.5562                75.8565               109.5017
 Red. masses --      2.8779                 2.8583                 3.8651
 Frc consts  --      0.0073                 0.0097                 0.0273
 IR Inten    --      0.1678                 0.2483                 2.0530

                      4                      5                      6
                      A                      A                      A
 Frequencies --    178.0572               208.6424               231.0985
 Red. masses --      2.9917                 2.0208                 1.0672
 Frc consts  --      0.0559                 0.0518                 0.0336
 IR Inten    --      2.0263                 0.6722                 0.0145

                      7                      8                      9
                      A                      A                      A
 Frequencies --    239.5623               254.9989               272.1638
 Red. masses --      1.0830                 1.6645                 2.1615
 Frc consts  --      0.0366                 0.0638                 0.0943
 IR Inten    --      0.0510                 0.1244                 3.3701

                     10                     11                     12
                      A                      A                      A
 Frequencies --    287.9249               319.5363               378.1494
 Red. masses --      2.2591                 2.2332                 3.3051
 Frc consts  --      0.1103                 0.1343                 0.2785
 IR Inten    --      0.5182                 0.2521                 1.1753

                     13                     14                     15
                      A                      A                      A
 Frequencies --    402.4568               412.6553               451.7761
 Red. masses --      2.7071                 2.2657                 2.0811
 Frc consts  --      0.2583                 0.2273                 0.2503
 IR Inten    --      0.2593                 0.6345                 1.0398

                     16                     17                     18
                      A                      A                      A
 Frequencies --    453.4474               525.4738               610.2829
 Red. masses --      2.6669                 2.4564                 3.7608
 Frc consts  --      0.3231                 0.3996                 0.8253
 IR Inten    --      0.4652                 3.1366                 8.3390

                     19                     20                     21
                      A                      A                      A
 Frequencies --    676.7334               757.2801               826.2862
 Red. masses --      4.2592                 2.1501                 2.1067
 Frc consts  --      1.1492                 0.7265                 0.8474
 IR Inten    --      1.8233                 4.0641                 1.0415

                     22                     23                     24
                      A                      A                      A
 Frequencies --    849.2200               887.2640               913.3599
 Red. masses --      2.2496                 1.7922                 2.0580
 Frc consts  --      0.9559                 0.8313                 1.0115
 IR Inten    --      1.1899                 1.6287                 1.7574

                     25                     26                     27
                      A                      A                      A
 Frequencies --    938.8098               944.5385               966.5318
 Red. masses --      1.3162                 1.6568                 1.3979
 Frc consts  --      0.6835                 0.8709                 0.7694
 IR Inten    --      2.4194                 1.4255                 1.4114

                     28                     29                     30
                      A                      A                      A
 Frequencies --    977.7368              1000.2260              1010.4246
 Red. masses --      1.4233                 2.2857                 1.9532
 Frc consts  --      0.8016                 1.3473                 1.1749
 IR Inten    --      0.1872                 7.3565                 1.4299

                     31                     32                     33
                      A                      A                      A
 Frequencies --   1038.6245              1065.2359              1099.1918
 Red. masses --      1.6623                 1.7893                 1.5562
 Frc consts  --      1.0565                 1.1963                 1.1078
 IR Inten    --      4.2005                 9.2393                 4.7432

                     34                     35                     36
                      A                      A                      A
 Frequencies --   1120.2270              1141.1256              1165.9285
 Red. masses --      2.3306                 2.0696                 2.2323
 Frc consts  --      1.7232                 1.5878                 1.7879
 IR Inten    --      9.4159                13.4415                 6.8005

                     37                     38                     39
                      A                      A                      A
 Frequencies --   1177.9332              1206.1863              1230.9912
 Red. masses --      2.0815                 1.7503                 1.9274
 Frc consts  --      1.7017                 1.5004                 1.7208
 IR Inten    --      3.5223                 6.3251                37.9946

                     40                     41                     42
                      A                      A                      A
 Frequencies --   1251.3329              1285.1755              1308.4536
 Red. masses --      1.3677                 1.3601                 1.3656
 Frc consts  --      1.2618                 1.3235                 1.3775
 IR Inten    --      0.2255                 2.0120                 3.3007

                     43                     44                     45
                      A                      A                      A
 Frequencies --   1318.1933              1330.6844              1360.0214
 Red. masses --      1.3791                 1.3743                 1.2935
 Frc consts  --      1.4119                 1.4338                 1.4096
 IR Inten    --      4.2340                 2.0839                 3.0345

                     46                     47                     48
                      A                      A                      A
 Frequencies --   1361.3243              1381.6192              1382.7529
 Red. masses --      1.3773                 1.3823                 1.3349
 Frc consts  --      1.5038                 1.5547                 1.5038
 IR Inten    --      3.5457                11.2657                 0.4044

                     49                     50                     51
                      A                      A                      A
 Frequencies --   1409.3384              1416.1220              1427.9882
 Red. masses --      1.6349                 1.5255                 1.2602
 Frc consts  --      1.9133                 1.8025                 1.5140
 IR Inten    --     14.3606                 1.8851                 5.0079

                     52                     53                     54
                      A                      A                      A
 Frequencies --   1439.2005              1447.6430              1498.5403
 Red. masses --      1.2361                 1.2278                 1.0948
 Frc consts  --      1.5086                 1.5160                 1.4485
 IR Inten    --      2.0052                 4.2310                 3.0913

                     55                     56                     57
                      A                      A                      A
 Frequencies --   1516.2823              1518.8069              1523.9260
 Red. masses --      1.0795                 1.0582                 1.0804
 Frc consts  --      1.4624                 1.4382                 1.4783
 IR Inten    --      5.9635                 2.7089                 2.3927

                     58                     59                     60
                      A                      A                      A
 Frequencies --   1527.5833              1528.4409              1531.4307
 Red. masses --      1.0485                 1.0506                 1.0539
 Frc consts  --      1.4415                 1.4460                 1.4562
 IR Inten    --      7.0845                 3.2155                 3.4969

                     61                     62                     63
                      A                      A                      A
 Frequencies --   1535.6285              1549.3798              1803.4087
 Red. masses --      1.0566                 1.0461                11.1537
 Frc consts  --      1.4680                 1.4796                21.3726
 IR Inten    --      1.0980                11.3351               156.9092

                     64                     65                     66
                      A                      A                      A
 Frequencies --   2984.8918              3007.0050              3016.5657
 Red. masses --      1.0803                 1.0792                 1.0679
 Frc consts  --      5.6709                 5.7492                 5.7256
 IR Inten    --      7.9340                 1.9175                17.0155

                     67                     68                     69
                      A                      A                      A
 Frequencies --   3026.8948              3032.2248              3035.2973
 Red. masses --      1.0685                 1.0655                 1.0411
 Frc consts  --      5.7682                 5.7719                 5.6512
 IR Inten    --      8.6807                33.2104                19.0844

                     70                     71                     72
                      A                      A                      A
 Frequencies --   3038.4075              3039.9552              3050.8115
 Red. masses --      1.0513                 1.0381                 1.0729
 Frc consts  --      5.7184                 5.6522                 5.8834
 IR Inten    --     22.7675                46.9532                26.0745

                     73                     74                     75
                      A                      A                      A
 Frequencies --   3068.8118              3096.0416              3098.8232
 Red. masses --      1.0974                 1.0988                 1.0966
 Frc consts  --      6.0893                 6.2058                 6.2042
 IR Inten    --     43.9655                 2.3600                35.6049

                     76                     77                     78
                      A                      A                      A
 Frequencies --   3103.8466              3104.4162              3111.1879
 Red. masses --      1.1011                 1.0982                 1.1008
 Frc consts  --      6.2500                 6.2357                 6.2776
 IR Inten    --     35.3162                80.7799                10.9551

                     79                     80                     81
                      A                      A                      A
 Frequencies --   3114.0310              3120.2445              3149.0051
 Red. masses --      1.0982                 1.0999                 1.0978
 Frc consts  --      6.2747                 6.3094                 6.4141
 IR Inten    --     46.2691                35.4738                16.4611

 - Thermochemistry -
 -------------------
 Temperature   298.150 Kelvin.  Pressure   1.00000 Atm.
 Atom     1 has atomic number  8 and mass  15.99491

 Molecular mass:   154.13577 amu.
 Principal axes and moments of inertia in atomic units:
                           1         2         3
     Eigenvalues --   900.302062632.852623254.97982
           X            0.99998  -0.00574   0.00069
           Y            0.00572   0.99962   0.02700
           Z           -0.00085  -0.02699   0.99964
 This molecule is an asymmetric top.
 Rotational symmetry number  1.
 Warning -- assumption of classical behavior for rotation
           may cause significant error
 Rotational temperatures (Kelvin)      0.09621     0.03290     0.02661
 Rotational constants (GHZ):           2.00460     0.68547     0.55446
 Zero-point vibrational energy     695764.5 (Joules/Mol)
                                  166.29170 (Kcal/Mol)
 Warning -- explicit consideration of  18 degrees of freedom as
           vibrations may cause significant error
 Vibrational temperatures:     94.32   109.14   157.55   256.18   300.19
          (Kelvin)            332.50   344.68   366.89   391.58   414.26
                              459.74   544.07   579.05   593.72   650.01
                              652.41   756.04   878.06   973.67  1089.56
                             1188.84  1221.84  1276.57  1314.12  1350.74
                             1358.98  1390.62  1406.75  1439.10  1453.78
                             1494.35  1532.64  1581.49  1611.76  1641.83
                             1677.51  1694.78  1735.43  1771.12  1800.39
                             1849.08  1882.57  1896.59  1914.56  1956.77
                             1958.64  1987.84  1989.47  2027.72  2037.48
                             2054.56  2070.69  2082.84  2156.07  2181.59
                             2185.22  2192.59  2197.85  2199.09  2203.39
                             2209.43  2229.21  2594.70  4294.59  4326.41
                             4340.17  4355.03  4362.70  4367.12  4371.59
                             4373.82  4389.44  4415.34  4454.51  4458.52
                             4465.74  4466.56  4476.31  4480.40  4489.34
                             4530.72

 Zero-point correction=                           0.265003 (Hartree/Particle)
 Thermal correction to Energy=                    0.276949
 Thermal correction to Enthalpy=                  0.277893
 Thermal correction to Gibbs Free Energy=         0.227811
 Sum of electronic and zero-point Energies=           -466.881641
 Sum of electronic and thermal Energies=              -466.869696
 Sum of electronic and thermal Enthalpies=            -466.868751
 Sum of electronic and thermal Free Energies=         -466.918833

                     E (Thermal)             CV                S
                      KCal/Mol        Cal/Mol-Kelvin    Cal/Mol-Kelvin
 Total                  173.788             46.101            105.405
 Electronic               0.000              0.000              0.000
 Translational            0.889              2.981             41.008
 Rotational               0.889              2.981             30.424
 Vibrational            172.010             40.140             33.974
 Vibration     1          0.597              1.971              4.283
 Vibration     2          0.599              1.965              3.995
 Vibration     3          0.606              1.942              3.278
 Vibration     4          0.628              1.869              2.349
 Vibration     5          0.642              1.828              2.056
 Vibration     6          0.653              1.793              1.870
 Vibration     7          0.657              1.780              1.806
 Vibration     8          0.665              1.754              1.696
 Vibration     9          0.675              1.725              1.582
 Vibration    10          0.685              1.696              1.486
 Vibration    11          0.705              1.636              1.312
 Vibration    12          0.748              1.517              1.047
 Vibration    13          0.768              1.465              0.954
 Vibration    14          0.776              1.443              0.917
 Vibration    15          0.810              1.357              0.790
 Vibration    16          0.812              1.353              0.785
 Vibration    17          0.880              1.194              0.597
 Vibration    18          0.969              1.010              0.432

 Normal termination of Gaussian 16 at Thu Feb 22 10:40:32 2024.
