 Gaussian 16, Revision A.03,
 Gaussian 16:  EM64M-G16RevA.03 25-Dec-2016

 ---------------------
 # freq b3lyp/6-31g(d)
 ---------------------

 ---------
 good luck
 ---------
 Symbolic Z-matrix:
 Charge =  0 Multiplicity = 1

                         Standard orientation:
 ---------------------------------------------------------------------
 Center     Atomic      Atomic             Coordinates (Angstroms)
 Number     Number       Type             X           Y           Z
 ---------------------------------------------------------------------
      1          8           0       -0.387603    2.243994   -0.013923
      2          6           0        0.116842    1.165180   -0.269571
      3          6           0       -0.700510   -0.121147   -0.437191
      4          6           0       -2.216572    0.095535   -0.212969
      5          6           0       -2.595173    0.307683    1.261912
      6          6           0       -3.045657   -1.039206   -0.834631
      7          6           0       -0.058361   -1.257729    0.397062
      8          6           0        1.435415   -1.433955    0.090438
      9          6           0        2.229685   -0.142648    0.344182
     10          6           0        3.723660   -0.309207    0.045591
     11          6           0        1.621090    1.018713   -0.472689
     12          1           0       -0.559614   -0.400752   -1.496568
     13          1           0       -2.466187    1.023086   -0.743179
     14          1           0       -3.659629    0.557098    1.345269
     15          1           0       -2.426119   -0.595525    1.861321
     16          1           0       -2.025077    1.130685    1.702616
     17          1           0       -2.817082   -1.169893   -1.899697
     18          1           0       -4.117266   -0.824719   -0.748918
     19          1           0       -2.866140   -1.998904   -0.334144
     20          1           0       -0.179774   -1.040641    1.466348
     21          1           0       -0.593469   -2.195704    0.207668
     22          1           0        1.565440   -1.737918   -0.959769
     23          1           0        1.846589   -2.247538    0.702275
     24          1           0        2.121436    0.109950    1.410466
     25          1           0        4.162093   -1.106704    0.657117
     26          1           0        4.276801    0.614601    0.251311
     27          1           0        3.886473   -0.568099   -1.008624
     28          1           0        2.093056    1.976636   -0.232056
     29          1           0        1.796792    0.823077   -1.542851
 ---------------------------------------------------------------------

 SCF Done:  E(RB3LYP) =  -467.146715337     A.U. after   13 cycles

 The electronic state is 1-A.
 Alpha  occ. eigenvalues --  -19.13368 -10.26701 -10.19935 -10.19303 -10.19002
 Alpha  occ. eigenvalues --  -10.18798 -10.18782 -10.18447 -10.18060 -10.17164
 Alpha  occ. eigenvalues --  -10.16452  -1.03219  -0.83986  -0.80113  -0.74822
 Alpha  occ. eigenvalues --   -0.72541  -0.68194  -0.67663  -0.61963  -0.57808
 Alpha  occ. eigenvalues --   -0.56339  -0.51935  -0.47581  -0.46196  -0.45545
 Alpha  occ. eigenvalues --   -0.44136  -0.43832  -0.42271  -0.40989  -0.40381
 Alpha  occ. eigenvalues --   -0.39383  -0.38471  -0.37595  -0.37117  -0.36028
 Alpha  occ. eigenvalues --   -0.34910  -0.34427  -0.32940  -0.32539  -0.32092
 Alpha  occ. eigenvalues --   -0.31255  -0.30465  -0.23385
 Alpha virt. eigenvalues --   -0.01184   0.08485   0.08913   0.10037   0.12314
 Alpha virt. eigenvalues --    0.13475   0.13951   0.14453   0.14936   0.15509
 Alpha virt. eigenvalues --    0.16497   0.16867   0.17752   0.17817   0.18431

 Mulliken charges:
               1
     1  O   -0.455286
     2  C    0.444684
     3  C   -0.170164
     4  C   -0.061257
     5  C   -0.457288
     6  C   -0.453687
     7  C   -0.280630
     8  C   -0.264415
     9  C   -0.082471
    10  C   -0.444833
    11  C   -0.340426
    12  H    0.136839
    13  H    0.143858
    14  H    0.139764
    15  H    0.134146
    16  H    0.164015
    17  H    0.136578
    18  H    0.144564
    19  H    0.139327
    20  H    0.145441
    21  H    0.143578
    22  H    0.128005
    23  H    0.136045
    24  H    0.132271
    25  H    0.144839
    26  H    0.147385
    27  H    0.141091
    28  H    0.159470
    29  H    0.148559
 Sum of Mulliken charges =  -0.00000

 Dipole moment (field-independent basis, Debye):
    X=              1.2612    Y=             -2.4223    Z=             -0.4404  Tot=              2.7663
 Quadrupole moment (field-independent basis, Debye-Ang):
   XX=            -67.8888   YY=            -76.5983   ZZ=            -68.2250
   XY=              1.7311   XZ=              0.3483   YZ=             -0.7060

  Exact polarizability: 122.880  -1.598 100.951  -0.548   1.246  88.641
 Approx polarizability: 145.266  -6.834 153.615  -1.995   3.996 136.612

                      1                      2                      3
                      A                      A                      A
 Frequencies --     58.6209                81.7517               106.5656
 Red. masses --      3.1553                 2.5368                 3.5764
 Frc consts  --      0.0064                 0.0100                 0.0239
 IR Inten    --      0.2501                 0.3778                 2.1041

                      4                      5                      6
                      A                      A                      A
 Frequencies --    176.9393               209.2500               232.8731
 Red. masses --      3.0962                 2.0164                 1.1435
 Frc consts  --      0.0571                 0.0520                 0.0365
 IR Inten    --      1.9984                 0.2435                 0.0561

                      7                      8                      9
                      A                      A                      A
 Frequencies --    242.4553               257.2199               259.0763
 Red. masses --      1.1701                 1.4185                 1.3674
 Frc consts  --      0.0405                 0.0553                 0.0541
 IR Inten    --      0.0492                 0.2891                 1.1766

                     10                     11                     12
                      A                      A                      A
 Frequencies --    277.9303               297.3581               378.2858
 Red. masses --      3.2531                 2.5576                 3.3610
 Frc consts  --      0.1481                 0.1332                 0.2834
 IR Inten    --      0.7115                 1.9842                 1.1809

                     13                     14                     15
                      A                      A                      A
 Frequencies --    397.7951               401.5135               441.6891
 Red. masses --      3.0097                 2.4472                 1.9632
 Frc consts  --      0.2806                 0.2324                 0.2257
 IR Inten    --      0.0925                 1.8150                 1.8341

                     16                     17                     18
                      A                      A                      A
 Frequencies --    481.0023               555.4610               620.6793
 Red. masses --      2.8424                 2.6228                 3.2193
 Frc consts  --      0.3875                 0.4768                 0.7307
 IR Inten    --      0.2243                 5.8863                 5.5697

                     19                     20                     21
                      A                      A                      A
 Frequencies --    658.6826               746.9090               815.1915
 Red. masses --      3.9132                 2.4131                 2.1485
 Frc consts  --      1.0003                 0.7932                 0.8412
 IR Inten    --      2.4823                 3.2300                 0.3281

                     22                     23                     24
                      A                      A                      A
 Frequencies --    841.5410               883.4912               912.6918
 Red. masses --      2.5715                 1.6242                 1.9710
 Frc consts  --      1.0730                 0.7469                 0.9673
 IR Inten    --      1.2081                 4.4325                 1.0246

                     25                     26                     27
                      A                      A                      A
 Frequencies --    938.6385               945.2255               971.3120
 Red. masses --      1.2909                 1.8008                 1.3516
 Frc consts  --      0.6701                 0.9479                 0.7513
 IR Inten    --      1.5133                 0.6493                 2.0078

                     28                     29                     30
                      A                      A                      A
 Frequencies --    979.0344               995.4085              1009.9976
 Red. masses --      1.5328                 1.7439                 2.6830
 Frc consts  --      0.8657                 1.0181                 1.6125
 IR Inten    --      0.6900                 0.6376                12.5060

                     31                     32                     33
                      A                      A                      A
 Frequencies --   1047.8757              1058.1266              1094.3649
 Red. masses --      1.7225                 1.7512                 1.1394
 Frc consts  --      1.1144                 1.1552                 0.8040
 IR Inten    --      2.0426                11.0037                 1.0589

                     34                     35                     36
                      A                      A                      A
 Frequencies --   1114.6589              1143.9485              1159.4981
 Red. masses --      2.5779                 2.1413                 2.2465
 Frc consts  --      1.8871                 1.6510                 1.7795
 IR Inten    --     13.3363                14.6626                 1.0119

                     37                     38                     39
                      A                      A                      A
 Frequencies --   1187.0102              1218.6379              1230.7761
 Red. masses --      2.1916                 1.8981                 2.0216
 Frc consts  --      1.8193                 1.6608                 1.8043
 IR Inten    --     10.3694                 4.5344                23.5139

                     40                     41                     42
                      A                      A                      A
 Frequencies --   1257.1947              1284.5716              1310.5194
 Red. masses --      1.3328                 1.3856                 1.3490
 Frc consts  --      1.2411                 1.3471                 1.3651
 IR Inten    --      0.5400                 5.0527                 1.0577

                     43                     44                     45
                      A                      A                      A
 Frequencies --   1324.8177              1329.9797              1358.7965
 Red. masses --      1.3213                 1.3816                 1.2923
 Frc consts  --      1.3664                 1.4399                 1.4058
 IR Inten    --      5.3166                 2.2946                 6.3790

                     46                     47                     48
                      A                      A                      A
 Frequencies --   1375.2692              1384.8822              1396.6192
 Red. masses --      1.3835                 1.3754                 1.4206
 Frc consts  --      1.5417                 1.5542                 1.6326
 IR Inten    --      3.5728                 7.5047                 8.4579

                     49                     50                     51
                      A                      A                      A
 Frequencies --   1403.6187              1412.6300              1429.3096
 Red. masses --      1.5811                 1.5734                 1.2753
 Frc consts  --      1.8353                 1.8499                 1.5351
 IR Inten    --      7.4103                 0.8083                 8.6629

                     52                     53                     54
                      A                      A                      A
 Frequencies --   1439.2996              1448.8783              1494.3815
 Red. masses --      1.2359                 1.2337                 1.0904
 Frc consts  --      1.5084                 1.5258                 1.4346
 IR Inten    --      1.9285                 4.7339                 4.0806

                     55                     56                     57
                      A                      A                      A
 Frequencies --   1517.8696              1519.9822              1525.1095
 Red. masses --      1.0840                 1.0474                 1.0713
 Frc consts  --      1.4715                 1.4257                 1.4681
 IR Inten    --      4.3484                 0.9805                 0.9782

                     58                     59                     60
                      A                      A                      A
 Frequencies --   1527.6546              1528.5446              1530.7034
 Red. masses --      1.0466                 1.0531                 1.0721
 Frc consts  --      1.4391                 1.4497                 1.4801
 IR Inten    --      8.5737                 3.2142                 1.5010

                     61                     62                     63
                      A                      A                      A
 Frequencies --   1538.7458              1543.3692              1803.1155
 Red. masses --      1.0493                 1.0494                11.4434
 Frc consts  --      1.4638                 1.4728                21.9207
 IR Inten    --      4.2086                 8.5945               158.7020

                     64                     65                     66
                      A                      A                      A
 Frequencies --   2971.6251              3002.9602              3012.6149
 Red. masses --      1.0803                 1.0785                 1.0681
 Frc consts  --      5.6205                 5.7301                 5.7113
 IR Inten    --     15.3395                 0.7030                10.3166

                     67                     68                     69
                      A                      A                      A
 Frequencies --   3021.8785              3037.8333              3039.4070
 Red. masses --      1.0695                 1.0360                 1.0370
 Frc consts  --      5.7544                 5.6332                 5.6441
 IR Inten    --     39.2042                24.6533                39.1376

                     70                     71                     72
                      A                      A                      A
 Frequencies --   3042.0741              3049.0474              3052.8562
 Red. masses --      1.0560                 1.0511                 1.0781
 Frc consts  --      5.7576                 5.7571                 5.9199
 IR Inten    --      3.1366                34.0703                11.4783

                     73                     74                     75
                      A                      A                      A
 Frequencies --   3069.0655              3086.8901              3100.8735
 Red. masses --      1.0940                 1.1032                 1.1018
 Frc consts  --      6.0715                 6.1939                 6.2420
 IR Inten    --     43.1645                39.4618                12.7253

                     76                     77                     78
                      A                      A                      A
 Frequencies --   3103.1480              3104.1216              3108.6741
 Red. masses --      1.1003                 1.1014                 1.0964
 Frc consts  --      6.2429                 6.2527                 6.2428
 IR Inten    --     21.8971                42.5928                31.5495

                     79                     80                     81
                      A                      A                      A
 Frequencies --   3109.4313              3112.1546              3136.5230
 Red. masses --      1.1005                 1.1012                 1.1003
 Frc consts  --      6.2691                 6.2842                 6.3777
 IR Inten    --     66.9466                43.8411                19.2159

 - Thermochemistry -
 -------------------
 Temperature   298.150 Kelvin.  Pressure   1.00000 Atm.
 Atom     1 has atomic number  8 and mass  15.99491

 Molecular mass:   154.13577 amu.
 Principal axes and moments of inertia in atomic units:
                           1         2         3
     Eigenvalues --   930.333512632.473023118.12911
           X            0.99997   0.00735  -0.00284
           Y           -0.00732   0.99992   0.01026
           Z            0.00292  -0.01024   0.99994
 This molecule is an asymmetric top.
 Rotational symmetry number  1.
 Warning -- assumption of classical behavior for rotation
           may cause significant error
 Rotational temperatures (Kelvin)      0.09310     0.03290     0.02778
 Rotational constants (GHZ):           1.93989     0.68557     0.57879
 Zero-point vibrational energy     695488.1 (Joules/Mol)
                                  166.22564 (Kcal/Mol)
 Warning -- explicit consideration of  18 degrees of freedom as
           vibrations may cause significant error
 Vibrational temperatures:     84.34   117.62   153.32   254.58   301.06
          (Kelvin)            335.05   348.84   370.08   372.75   399.88
                              427.83   544.27   572.34   577.69   635.49
                              692.05   799.18   893.02   947.70  1074.64
                             1172.88  1210.79  1271.15  1313.16  1350.49
                             1359.97  1397.50  1408.61  1432.17  1453.16
                             1507.66  1522.41  1574.55  1603.75  1645.89
                             1668.26  1707.84  1753.35  1770.81  1808.82
                             1848.21  1885.55  1906.12  1913.54  1955.01
                             1978.71  1992.54  2009.42  2019.49  2032.46
                             2056.46  2070.83  2084.61  2150.08  2183.88
                             2186.92  2194.29  2197.95  2199.23  2202.34
                             2213.91  2220.56  2594.28  4275.51  4320.59
                             4334.48  4347.81  4370.76  4373.03  4376.87
                             4386.90  4392.38  4415.70  4441.35  4461.47
                             4464.74  4466.14  4472.69  4473.78  4477.70
                             4512.76

 Zero-point correction=                           0.264897 (Hartree/Particle)
 Thermal correction to Energy=                    0.276892
 Thermal correction to Enthalpy=                  0.277836
 Thermal correction to Gibbs Free Energy=         0.227607
 Sum of electronic and zero-point Energies=           -466.881818
 Sum of electronic and thermal Energies=              -466.869824
 Sum of electronic and thermal Enthalpies=            -466.868879
 Sum of electronic and thermal Free Energies=         -466.919108

                     E (Thermal)             CV                S
                      KCal/Mol        Cal/Mol-Kelvin    Cal/Mol-Kelvin
 Total                  173.752             46.151            105.716
 Electronic               0.000              0.000              0.000
 Translational            0.889              2.981             41.008
 Rotational               0.889              2.981             30.414
 Vibrational            171.975             40.190             34.294
 Vibration     1          0.596              1.974              4.503
 Vibration     2          0.600              1.962              3.848
 Vibration     3          0.605              1.944              3.331
 Vibration     4          0.628              1.871              2.360
 Vibration     5          0.642              1.827              2.050
 Vibration     6          0.654              1.791              1.857
 Vibration     7          0.659              1.775              1.785
 Vibration     8          0.667              1.751              1.681
 Vibration     9          0.668              1.747              1.668
 Vibration    10          0.679              1.714              1.546
 Vibration    11          0.691              1.679              1.432
 Vibration    12          0.749              1.516              1.046
 Vibration    13          0.764              1.475              0.971
 Vibration    14          0.767              1.467              0.957
 Vibration    15          0.801              1.379              0.821
 Vibration    16          0.837              1.292              0.707
 Vibration    17          0.911              1.128              0.533
 Vibration    18          0.981              0.988              0.415

 Normal termination of Gaussian 16 at Thu Feb 22 10:43:23 2024.
