 Gaussian 16, Revision A.03,
 Gaussian 16:  EM64M-G16RevA.03 25-Dec-2016

 ---------------------
 # freq b3lyp/6-31g(d)
 ---------------------

 ---------
 good luck
 ---------
 Symbolic Z-matrix:
 Charge =  0 Multiplicity = 1

                         Standard orientation:
 ---------------------------------------------------------------------
 Center     Atomic      Atomic             Coordinates (Angstroms)
 Number     Number       Type             X           Y           Z
 ---------------------------------------------------------------------
      1          8           0       -2.839748   -0.553042    0.565286
      2          6           0       -1.751689   -0.368292    0.055874
      3          6           0       -1.505151    0.708296   -1.007608
      4          6           0       -0.015971    1.115661   -1.075093
      5          6           0        0.350382    1.884395    0.214338
      6          6           0        0.133536    1.060181    1.502105
      7          6           0        0.903221   -0.141640   -1.361641
      8          6           0        0.163980   -1.445788   -1.001743
      9          6           0       -0.512372   -1.203239    0.365173
     10          6           0        0.469154   -0.440678    1.349944
     11          6           0        1.937904   -0.645712    0.915632
     12          6           0        2.210731   -0.164905   -0.539341
     13          1           0       -1.840644    0.299504   -1.971431
     14          1           0       -2.154289    1.565011   -0.795889
     15          1           0        0.107629    1.814734   -1.911524
     16          1           0        1.388599    2.226514    0.156908
     17          1           0       -0.258384    2.796823    0.261284
     18          1           0       -0.906078    1.157055    1.839456
     19          1           0        0.747060    1.478557    2.310349
     20          1           0        1.154849   -0.138342   -2.428918
     21          1           0        0.870611   -2.282508   -0.952772
     22          1           0       -0.584012   -1.723548   -1.753885
     23          1           0       -0.843416   -2.137353    0.829152
     24          1           0        0.339828   -0.894029    2.339736
     25          1           0        2.180292   -1.712268    1.000285
     26          1           0        2.600226   -0.130012    1.621801
     27          1           0        2.703221    0.812598   -0.549358
     28          1           0        2.910142   -0.858068   -1.023325
 ---------------------------------------------------------------------

 SCF Done:  E(RB3LYP) =  -504.025023090     A.U. after   13 cycles

 The electronic state is 1-A.
 Alpha  occ. eigenvalues --  -19.12770 -10.26331 -10.19567 -10.19455 -10.19208
 Alpha  occ. eigenvalues --  -10.18921 -10.18595 -10.18549 -10.18400 -10.18312
 Alpha  occ. eigenvalues --  -10.18197 -10.18161  -1.02741  -0.86439  -0.78373
 Alpha  occ. eigenvalues --   -0.77435  -0.75903  -0.70849  -0.64146  -0.63792
 Alpha  occ. eigenvalues --   -0.62543  -0.55023  -0.53548  -0.50934  -0.49596
 Alpha  occ. eigenvalues --   -0.48494  -0.44931  -0.43649  -0.42626  -0.41172
 Alpha  occ. eigenvalues --   -0.40906  -0.40468  -0.39620  -0.38968  -0.37977
 Alpha  occ. eigenvalues --   -0.37352  -0.36588  -0.33692  -0.31911  -0.31757
 Alpha  occ. eigenvalues --   -0.31502  -0.30171  -0.29714  -0.29389  -0.22808
 Alpha virt. eigenvalues --   -0.00577   0.06117   0.09548   0.11152   0.11826
 Alpha virt. eigenvalues --    0.12088   0.12609   0.14206   0.15158   0.15466
 Alpha virt. eigenvalues --    0.15832   0.18033   0.18125   0.18680   0.19266

 Mulliken charges:
               1
     1  O   -0.465400
     2  C    0.452149
     3  C   -0.360066
     4  C   -0.109665
     5  C   -0.266637
     6  C   -0.292519
     7  C   -0.093416
     8  C   -0.300230
     9  C   -0.167493
    10  C   -0.094241
    11  C   -0.274771
    12  C   -0.274989
    13  H    0.165920
    14  H    0.162459
    15  H    0.126538
    16  H    0.137456
    17  H    0.134691
    18  H    0.156319
    19  H    0.135001
    20  H    0.123162
    21  H    0.141796
    22  H    0.140946
    23  H    0.143767
    24  H    0.134938
    25  H    0.137650
    26  H    0.135308
    27  H    0.137567
    28  H    0.133760
 Sum of Mulliken charges =  -0.00000

 Dipole moment (field-independent basis, Debye):
    X=              2.9002    Y=              0.5462    Z=             -1.0882  Tot=              3.1454
 Quadrupole moment (field-independent basis, Debye-Ang):
   XX=            -83.1825   YY=            -71.3341   ZZ=            -71.3666
   XY=             -2.5956   XZ=              3.8157   YZ=              0.5223

  Exact polarizability: 111.624  -1.427 101.055  -0.576  -0.893 100.575
 Approx polarizability: 163.551   0.645 147.712  -5.388  -1.668 148.327

                      1                      2                      3
                      A                      A                      A
 Frequencies --    108.6589               193.0703               204.6438
 Red. masses --      5.5576                 2.7503                 2.4948
 Frc consts  --      0.0387                 0.0604                 0.0616
 IR Inten    --      3.9720                 0.4110                 0.3552

                      4                      5                      6
                      A                      A                      A
 Frequencies --    337.7004               361.3683               383.3046
 Red. masses --      2.2780                 2.2181                 2.3576
 Frc consts  --      0.1531                 0.1707                 0.2041
 IR Inten    --      0.2538                 0.1267                 1.0061

                      7                      8                      9
                      A                      A                      A
 Frequencies --    398.7828               417.2394               434.4827
 Red. masses --      3.2572                 3.7268                 2.2499
 Frc consts  --      0.3052                 0.3823                 0.2502
 IR Inten    --      1.4263                 1.4170                 0.3698

                     10                     11                     12
                      A                      A                      A
 Frequencies --    445.1339               496.4685               527.7148
 Red. masses --      4.6593                 3.3338                 3.5687
 Frc consts  --      0.5439                 0.4841                 0.5855
 IR Inten    --      3.4411                 4.2311                 0.6811

                     13                     14                     15
                      A                      A                      A
 Frequencies --    595.9961               644.7657               716.7735
 Red. masses --      2.7520                 3.1993                 3.6544
 Frc consts  --      0.5760                 0.7836                 1.1062
 IR Inten    --      1.0262                 0.1503                 0.7134

                     16                     17                     18
                      A                      A                      A
 Frequencies --    738.2261               766.6789               778.4566
 Red. masses --      2.4584                 2.7750                 2.1015
 Frc consts  --      0.7894                 0.9610                 0.7503
 IR Inten    --      0.4484                 1.2425                 4.8757

                     19                     20                     21
                      A                      A                      A
 Frequencies --    819.9267               830.6084               877.0359
 Red. masses --      1.8788                 2.7652                 2.1297
 Frc consts  --      0.7442                 1.1240                 0.9652
 IR Inten    --      1.8870                 0.2503                 1.7761

                     22                     23                     24
                      A                      A                      A
 Frequencies --    898.5408               908.4604               940.4998
 Red. masses --      2.4177                 2.2934                 2.2412
 Frc consts  --      1.1501                 1.1152                 1.1680
 IR Inten    --      3.0663                 0.4936                 1.3746

                     25                     26                     27
                      A                      A                      A
 Frequencies --    959.4579               973.1641               980.4441
 Red. masses --      2.3514                 2.6206                 2.0742
 Frc consts  --      1.2754                 1.4623                 1.1747
 IR Inten    --      0.7069                 0.8766                 0.9650

                     28                     29                     30
                      A                      A                      A
 Frequencies --    996.7677              1021.9031              1057.4402
 Red. masses --      1.9197                 1.9079                 2.1360
 Frc consts  --      1.1237                 1.1739                 1.4072
 IR Inten    --      5.6539                 2.1417                 4.9446

                     31                     32                     33
                      A                      A                      A
 Frequencies --   1064.2684              1076.2210              1109.9608
 Red. masses --      1.8043                 2.3510                 1.6293
 Frc consts  --      1.2041                 1.6044                 1.1827
 IR Inten    --      5.9920                 0.1513                 3.5170

                     34                     35                     36
                      A                      A                      A
 Frequencies --   1119.2142              1171.6907              1192.6189
 Red. masses --      1.5952                 1.4956                 1.3102
 Frc consts  --      1.1773                 1.2098                 1.0980
 IR Inten    --      7.2791                10.5560                 2.9592

                     37                     38                     39
                      A                      A                      A
 Frequencies --   1194.8102              1214.6017              1234.5066
 Red. masses --      1.1795                 1.1397                 1.3695
 Frc consts  --      0.9920                 0.9906                 1.2297
 IR Inten    --      0.4565                 1.3865                 1.7497

                     40                     41                     42
                      A                      A                      A
 Frequencies --   1246.0291              1258.5551              1284.6778
 Red. masses --      1.6534                 1.3473                 1.4616
 Frc consts  --      1.5125                 1.2574                 1.4212
 IR Inten    --     23.0902                 0.5964                 0.2641

                     43                     44                     45
                      A                      A                      A
 Frequencies --   1289.0232              1297.3699              1331.8790
 Red. masses --      1.4738                 1.2761                 1.6763
 Frc consts  --      1.4429                 1.2655                 1.7519
 IR Inten    --      1.1636                 0.9307                 1.4445

                     46                     47                     48
                      A                      A                      A
 Frequencies --   1338.7942              1355.2575              1357.1575
 Red. masses --      1.4988                 1.4341                 1.4111
 Frc consts  --      1.5828                 1.5519                 1.5313
 IR Inten    --      3.1951                 0.2035                 0.8333

                     49                     50                     51
                      A                      A                      A
 Frequencies --   1365.9714              1376.8032              1382.3482
 Red. masses --      1.3345                 1.4297                 1.5733
 Frc consts  --      1.4671                 1.5968                 1.7713
 IR Inten    --      3.0022                 5.9498                 1.3299

                     52                     53                     54
                      A                      A                      A
 Frequencies --   1387.9329              1398.8864              1404.9221
 Red. masses --      1.4351                 1.4060                 1.4030
 Frc consts  --      1.6288                 1.6211                 1.6316
 IR Inten    --      1.9182                 0.9739                 1.9732

                     55                     56                     57
                      A                      A                      A
 Frequencies --   1415.4552              1486.4198              1515.1029
 Red. masses --      1.3833                 1.0842                 1.0755
 Frc consts  --      1.6328                 1.4114                 1.4546
 IR Inten    --      1.1587                 9.0846                 0.3693

                     58                     59                     60
                      A                      A                      A
 Frequencies --   1527.9445              1535.8968              1547.9844
 Red. masses --      1.0930                 1.0813                 1.0835
 Frc consts  --      1.5035                 1.5029                 1.5297
 IR Inten    --      7.0759                 6.5372                11.2637

                     61                     62                     63
                      A                      A                      A
 Frequencies --   1561.5518              1819.6181              3033.2908
 Red. masses --      1.0845                11.7218                 1.0759
 Frc consts  --      1.5581                22.8667                 5.8323
 IR Inten    --      2.1655               199.6132                 3.2585

                     64                     65                     66
                      A                      A                      A
 Frequencies --   3038.5945              3039.2798              3043.2193
 Red. masses --      1.0679                 1.0657                 1.0694
 Frc consts  --      5.8092                 5.8001                 5.8353
 IR Inten    --      7.5785                 2.9057                 2.2071

                     67                     68                     69
                      A                      A                      A
 Frequencies --   3048.7906              3052.5738              3055.2593
 Red. masses --      1.0742                 1.0643                 1.0703
 Frc consts  --      5.8830                 5.8431                 5.8862
 IR Inten    --      6.5273                29.5563                87.3598

                     70                     71                     72
                      A                      A                      A
 Frequencies --   3060.6107              3068.3899              3069.3185
 Red. masses --      1.0789                 1.1025                 1.0813
 Frc consts  --      5.9544                 6.1160                 6.0016
 IR Inten    --     97.9152                 1.7523                50.1192

                     73                     74                     75
                      A                      A                      A
 Frequencies --   3074.5195              3083.9616              3091.1185
 Red. masses --      1.0996                 1.1032                 1.0989
 Frc consts  --      6.1243                 6.1819                 6.1863
 IR Inten    --     32.1551                19.5578                36.4999

                     76                     77                     78
                      A                      A                      A
 Frequencies --   3094.2252              3099.9678              3106.2667
 Red. masses --      1.0896                 1.0956                 1.0959
 Frc consts  --      6.1462                 6.2030                 6.2302
 IR Inten    --     52.6272                20.0090                68.7767

 - Thermochemistry -
 -------------------
 Temperature   298.150 Kelvin.  Pressure   1.00000 Atm.
 Atom     1 has atomic number  8 and mass  15.99491

 Molecular mass:   164.12012 amu.
 Principal axes and moments of inertia in atomic units:
                           1         2         3
     Eigenvalues --  1222.892921872.903661895.68987
           X            0.99928  -0.03318   0.01835
           Y            0.02846   0.97617   0.21511
           Z           -0.02505  -0.21443   0.97642
 This molecule is an asymmetric top.
 Rotational symmetry number  1.
 Warning -- assumption of classical behavior for rotation
           may cause significant error
 Rotational temperatures (Kelvin)      0.07083     0.04625     0.04569
 Rotational constants (GHZ):           1.47580     0.96361     0.95202
 Zero-point vibrational energy     668333.1 (Joules/Mol)
                                  159.73545 (Kcal/Mol)
 Warning -- explicit consideration of  13 degrees of freedom as
           vibrations may cause significant error
 Vibrational temperatures:    156.34   277.79   294.44   485.88   519.93
          (Kelvin)            551.49   573.76   600.31   625.12   640.45
                              714.31   759.26   857.51   927.67  1031.28
                             1062.14  1103.08  1120.03  1179.69  1195.06
                             1261.86  1292.80  1307.07  1353.17  1380.45
                             1400.17  1410.64  1434.13  1470.29  1521.42
                             1531.24  1548.44  1596.99  1610.30  1685.80
                             1715.91  1719.07  1747.54  1776.18  1792.76
                             1810.78  1848.36  1854.62  1866.63  1916.28
                             1926.23  1949.91  1952.65  1965.33  1980.91
                             1988.89  1996.93  2012.69  2021.37  2036.52
                             2138.63  2179.90  2198.37  2209.81  2227.20
                             2246.72  2618.02  4364.23  4371.86  4372.85
                             4378.51  4386.53  4391.97  4395.84  4403.54
                             4414.73  4416.06  4423.55  4437.13  4447.43
                             4451.90  4460.16  4469.23

 Zero-point correction=                           0.254555 (Hartree/Particle)
 Thermal correction to Energy=                    0.263484
 Thermal correction to Enthalpy=                  0.264428
 Thermal correction to Gibbs Free Energy=         0.221181
 Sum of electronic and zero-point Energies=           -503.770468
 Sum of electronic and thermal Energies=              -503.761539
 Sum of electronic and thermal Enthalpies=            -503.760595
 Sum of electronic and thermal Free Energies=         -503.803842

                     E (Thermal)             CV                S
                      KCal/Mol        Cal/Mol-Kelvin    Cal/Mol-Kelvin
 Total                  165.339             39.448             91.021
 Electronic               0.000              0.000              0.000
 Translational            0.889              2.981             41.195
 Rotational               0.889              2.981             29.852
 Vibrational            163.561             33.486             19.974
 Vibration     1          0.606              1.942              3.293
 Vibration     2          0.635              1.849              2.198
 Vibration     3          0.640              1.833              2.091
 Vibration     4          0.718              1.600              1.223
 Vibration     5          0.736              1.552              1.116
 Vibration     6          0.753              1.506              1.026
 Vibration     7          0.765              1.473              0.967
 Vibration     8          0.780              1.433              0.901
 Vibration     9          0.795              1.395              0.844
 Vibration    10          0.805              1.372              0.811
 Vibration    11          0.852              1.258              0.667
 Vibration    12          0.883              1.189              0.592
 Vibration    13          0.954              1.040              0.457

 Optimization completed.
    -- Stationary point found.
 Normal termination of Gaussian 16 at Thu Feb 22 11:09:39 2024.
