 Gaussian 16, Revision A.03,
 Gaussian 16:  EM64M-G16RevA.03 25-Dec-2016

 ---------------------
 # freq b3lyp/6-31g(d)
 ---------------------

 ---------
 good luck
 ---------
 Symbolic Z-matrix:
 Charge =  0 Multiplicity = 1

                         Standard orientation:
 ---------------------------------------------------------------------
 Center     Atomic      Atomic             Coordinates (Angstroms)
 Number     Number       Type             X           Y           Z
 ---------------------------------------------------------------------
      1          8           0       -3.798994   -2.292464   -0.020082
      2          6           0       -3.139345   -1.270324   -0.010851
      3          6           0       -2.675630   -0.571284    1.263375
      4          6           0       -1.127602   -0.517440    1.255350
      5          6           0       -3.241532    0.869126    1.267107
      6          6           0       -2.742023    1.617141    0.016554
      7          6           0       -3.243869    0.893317   -1.247224
      8          6           0       -2.677994   -0.546890   -1.272247
      9          6           0       -1.129957   -0.493185   -1.266069
     10          6           0       -0.595641    0.235392    0.001267
     11          6           0        0.938737    0.240163   -0.000090
     12          6           0        1.649202   -0.968454    0.005932
     13          6           0        3.044260   -1.017283    0.005078
     14          6           0        3.778240    0.174197   -0.002007
     15          8           0        5.142150    0.252154   -0.003540
     16          6           0        5.881447   -0.958087    0.002436
     17          6           0        3.092594    1.394087   -0.008077
     18          6           0        1.701717    1.419841   -0.007085
     19          6           0       -1.200580    1.662035    0.015558
     20          1           0       -3.038378   -1.142319    2.124247
     21          1           0       -0.773599   -0.012853    2.164208
     22          1           0       -0.723886   -1.536479    1.284368
     23          1           0       -4.338975    0.846033    1.286612
     24          1           0       -2.914626    1.385415    2.179906
     25          1           0       -3.129713    2.644075    0.026793
     26          1           0       -4.341347    0.870590   -1.265128
     27          1           0       -2.918646    1.427070   -2.150528
     28          1           0       -3.042353   -1.101265   -2.143271
     29          1           0       -0.726349   -1.511470   -1.315448
     30          1           0       -0.777636    0.028794   -2.165705
     31          1           0        1.111022   -1.912804    0.011551
     32          1           0        3.540573   -1.981254    0.009934
     33          1           0        6.933374   -0.666529    0.000022
     34          1           0        5.672028   -1.565025   -0.888704
     35          1           0        5.673447   -1.555332    0.900433
     36          1           0        3.669013    2.314236   -0.013545
     37          1           0        1.212689    2.387826   -0.011947
     38          1           0       -0.851210    2.206316    0.903115
     39          1           0       -0.852803    2.223324   -0.861978
 ---------------------------------------------------------------------

 SCF Done:  E(RB3LYP) =  -810.305684381     A.U. after   14 cycles

 The electronic state is 1-A.
 Alpha  occ. eigenvalues --  -19.17749 -19.12990 -10.26085 -10.24528 -10.24192
 Alpha  occ. eigenvalues --  -10.20585 -10.19428 -10.19123 -10.19121 -10.18964
 Alpha  occ. eigenvalues --  -10.18952 -10.18951 -10.18923 -10.18922 -10.18912
 Alpha  occ. eigenvalues --  -10.18783 -10.18766 -10.18484 -10.18287  -1.06314
 Alpha  occ. eigenvalues --   -1.02799  -0.87785  -0.84832  -0.78949  -0.77836
 Alpha  occ. eigenvalues --   -0.76390  -0.74885  -0.73541  -0.69185  -0.67566
 Alpha  occ. eigenvalues --   -0.64868  -0.61222  -0.60140  -0.59905  -0.57506
 Alpha  occ. eigenvalues --   -0.56193  -0.53517  -0.50673  -0.47971  -0.47728
 Alpha  occ. eigenvalues --   -0.46844  -0.45930  -0.45210  -0.44749  -0.43955
 Alpha  occ. eigenvalues --   -0.43839  -0.43236  -0.42078  -0.41756  -0.41730
 Alpha  occ. eigenvalues --   -0.40100  -0.39919  -0.39505  -0.37533  -0.36855
 Alpha  occ. eigenvalues --   -0.36579  -0.36328  -0.34869  -0.34141  -0.33791
 Alpha  occ. eigenvalues --   -0.33472  -0.32442  -0.31585  -0.29964  -0.29724
 Alpha  occ. eigenvalues --   -0.29093  -0.24957  -0.22749  -0.21395
 Alpha virt. eigenvalues --   -0.00715  -0.00166   0.01296   0.06949   0.09046
 Alpha virt. eigenvalues --    0.10489   0.11591   0.11871   0.12256   0.13094
 Alpha virt. eigenvalues --    0.13537   0.14003   0.14341   0.15275   0.15459

 Mulliken charges:
               1
     1  O   -0.461360
     2  C    0.453542
     3  C   -0.166802
     4  C   -0.287794
     5  C   -0.279657
     6  C   -0.096212
     7  C   -0.279634
     8  C   -0.166805
     9  C   -0.287076
    10  C    0.001218
    11  C    0.164841
    12  C   -0.197612
    13  C   -0.200400
    14  C    0.380042
    15  O   -0.509027
    16  C   -0.214391
    17  C   -0.180846
    18  C   -0.194438
    19  C   -0.293565
    20  H    0.142026
    21  H    0.142765
    22  H    0.144885
    23  H    0.143542
    24  H    0.137755
    25  H    0.125496
    26  H    0.143534
    27  H    0.137730
    28  H    0.142058
    29  H    0.144843
    30  H    0.142601
    31  H    0.128585
    32  H    0.130949
    33  H    0.169649
    34  H    0.151517
    35  H    0.151503
    36  H    0.136070
    37  H    0.128620
    38  H    0.135978
    39  H    0.135870
 Sum of Mulliken charges =  -0.00000

 Dipole moment (field-independent basis, Debye):
    X=              2.1934    Y=              1.4498    Z=              0.0306  Tot=              2.6294
 Quadrupole moment (field-independent basis, Debye-Ang):
   XX=           -112.8525   YY=           -114.1960   ZZ=           -112.0434
   XY=            -19.7029   XZ=             -0.0747   YZ=             -0.1146

  Exact polarizability: 234.699  -1.135 164.348   0.002  -0.171 121.726
 Approx polarizability: 303.675  10.436 282.122   0.041  -0.360 185.512

                      1                      2                      3
                      A                      A                      A
 Frequencies --     46.8095                50.6892                72.2288
 Red. masses --      3.6182                 3.8448                 8.8766
 Frc consts  --      0.0047                 0.0058                 0.0273
 IR Inten    --      1.6121                 0.3529                 3.0352

                      4                      5                      6
                      A                      A                      A
 Frequencies --    105.3084               131.8028               186.8876
 Red. masses --      3.6290                 4.5450                 2.8997
 Frc consts  --      0.0237                 0.0465                 0.0597
 IR Inten    --      3.1659                 0.7338                 0.3019

                      7                      8                      9
                      A                      A                      A
 Frequencies --    219.2632               252.0448               256.2174
 Red. masses --      3.7492                 1.2463                 4.9393
 Frc consts  --      0.1062                 0.0466                 0.1910
 IR Inten    --      0.4615                 0.0329                 1.0728

                     10                     11                     12
                      A                      A                      A
 Frequencies --    280.3137               293.7124               327.2831
 Red. masses --      2.3501                 2.2922                 3.0214
 Frc consts  --      0.1088                 0.1165                 0.1907
 IR Inten    --      0.6696                 0.1678                 1.6574

                     13                     14                     15
                      A                      A                      A
 Frequencies --    375.3538               384.6597               414.7236
 Red. masses --      4.0903                 5.0609                 4.2188
 Frc consts  --      0.3395                 0.4412                 0.4275
 IR Inten    --      1.1363                 1.4356                 1.8661

                     16                     17                     18
                      A                      A                      A
 Frequencies --    425.5825               426.0159               443.7135
 Red. masses --      2.3975                 3.0083                 2.2682
 Frc consts  --      0.2558                 0.3217                 0.2631
 IR Inten    --      1.0252                 0.1912                 0.5438

                     19                     20                     21
                      A                      A                      A
 Frequencies --    448.7332               474.3095               490.1612
 Red. masses --      2.0393                 3.9440                 3.6717
 Frc consts  --      0.2419                 0.5228                 0.5198
 IR Inten    --      2.8933                 8.3966                 0.1878

                     22                     23                     24
                      A                      A                      A
 Frequencies --    560.1734               580.3965               615.1519
 Red. masses --      2.3271                 5.4639                 5.5303
 Frc consts  --      0.4302                 1.0844                 1.2330
 IR Inten    --      6.2713                14.6130                 0.0723

                     25                     26                     27
                      A                      A                      A
 Frequencies --    636.7070               655.9952               681.1148
 Red. masses --      3.4544                 7.0229                 4.6160
 Frc consts  --      0.8251                 1.7806                 1.2617
 IR Inten    --      2.3105                 0.8082                 1.1945

                     28                     29                     30
                      A                      A                      A
 Frequencies --    716.1424               737.6187               787.7046
 Red. masses --      3.9555                 4.4341                 3.8492
 Frc consts  --      1.1952                 1.4214                 1.4072
 IR Inten    --      2.6818                 0.9572                 1.2117

                     31                     32                     33
                      A                      A                      A
 Frequencies --    804.7052               811.3231               825.0927
 Red. masses --      3.3476                 4.0163                 1.3232
 Frc consts  --      1.2772                 1.5576                 0.5307
 IR Inten    --      0.2164                 5.5668                 9.3860

                     34                     35                     36
                      A                      A                      A
 Frequencies --    841.4402               864.0546               871.8955
 Red. masses --      1.6611                 2.4100                 3.7220
 Frc consts  --      0.6929                 1.0601                 1.6671
 IR Inten    --     33.7722                 2.3991                 3.9659

                     37                     38                     39
                      A                      A                      A
 Frequencies --    900.7065               901.8658               917.9259
 Red. masses --      1.5911                 1.5853                 2.3802
 Frc consts  --      0.7605                 0.7597                 1.1816
 IR Inten    --      0.0325                 2.8415                 6.3455

                     40                     41                     42
                      A                      A                      A
 Frequencies --    940.7315               954.1625               966.0206
 Red. masses --      1.5584                 1.4205                 1.5722
 Frc consts  --      0.8126                 0.7620                 0.8644
 IR Inten    --      0.1881                 0.0107                 0.0347

                     43                     44                     45
                      A                      A                      A
 Frequencies --    978.0170               985.5860              1017.9000
 Red. masses --      2.2691                 2.2021                 2.0670
 Frc consts  --      1.2788                 1.2603                 1.2618
 IR Inten    --      1.2036                 1.5709                 2.2647

                     46                     47                     48
                      A                      A                      A
 Frequencies --   1026.9461              1049.5397              1049.9236
 Red. masses --      3.7584                 2.7495                 3.0003
 Frc consts  --      2.3354                 1.7844                 1.9486
 IR Inten    --      4.2296                 4.1604                 4.0171

                     49                     50                     51
                      A                      A                      A
 Frequencies --   1071.7600              1077.8847              1082.2474
 Red. masses --      2.0336                 1.7810                 5.1593
 Frc consts  --      1.3763                 1.2192                 3.5604
 IR Inten    --      1.4587                29.9877                49.1010

                     52                     53                     54
                      A                      A                      A
 Frequencies --   1097.4270              1122.1311              1140.1498
 Red. masses --      1.7704                 1.4827                 1.2961
 Frc consts  --      1.2563                 1.1000                 0.9927
 IR Inten    --      2.7998                 0.0847                 0.0448

                     55                     56                     57
                      A                      A                      A
 Frequencies --   1153.0457              1163.0969              1185.2146
 Red. masses --      1.3407                 1.1053                 1.2704
 Frc consts  --      1.0502                 0.8810                 1.0514
 IR Inten    --      7.1908                 0.0167                 0.7402

                     58                     59                     60
                      A                      A                      A
 Frequencies --   1206.5222              1218.0433              1221.9254
 Red. masses --      1.1723                 1.4221                 1.1866
 Frc consts  --      1.0055                 1.2431                 1.0438
 IR Inten    --      1.4667                 6.1423                57.4216

                     61                     62                     63
                      A                      A                      A
 Frequencies --   1238.1436              1239.2806              1269.1800
 Red. masses --      3.2115                 1.9289                 1.5299
 Frc consts  --      2.9007                 1.7454                 1.4520
 IR Inten    --      5.4452                 7.1113                 6.6338

                     64                     65                     66
                      A                      A                      A
 Frequencies --   1273.9801              1297.0038              1302.4007
 Red. masses --      1.6662                 1.3557                 1.8229
 Frc consts  --      1.5933                 1.3437                 1.8218
 IR Inten    --      2.3838                 0.4569                50.5490

                     67                     68                     69
                      A                      A                      A
 Frequencies --   1304.3560              1330.2790              1337.3751
 Red. masses --      3.2991                 1.5716                 1.8962
 Frc consts  --      3.3071                 1.6386                 1.9982
 IR Inten    --    216.3595                 5.3605                 4.7355

                     70                     71                     72
                      A                      A                      A
 Frequencies --   1349.2184              1351.3432              1358.8122
 Red. masses --      1.7114                 2.2073                 1.4316
 Frc consts  --      1.8355                 2.3749                 1.5574
 IR Inten    --     22.1245                30.4371                 0.9954

                     73                     74                     75
                      A                      A                      A
 Frequencies --   1362.9043              1381.1441              1389.3687
 Red. masses --      1.6109                 1.6690                 1.5629
 Frc consts  --      1.7630                 1.8758                 1.7775
 IR Inten    --      4.9440                 2.9940                 1.1943

                     76                     77                     78
                      A                      A                      A
 Frequencies --   1395.9778              1397.7064              1412.7372
 Red. masses --      1.4984                 1.5281                 1.4606
 Frc consts  --      1.7204                 1.7588                 1.7176
 IR Inten    --      1.6495                 1.5872                 1.0739

                     79                     80                     81
                      A                      A                      A
 Frequencies --   1462.3813              1500.2643              1507.7466
 Red. masses --      3.0045                 1.1923                 1.0841
 Frc consts  --      3.7857                 1.5812                 1.4521
 IR Inten    --      0.2990                18.9349                 0.0362

                     82                     83                     84
                      A                      A                      A
 Frequencies --   1516.1942              1520.7244              1521.7395
 Red. masses --      1.0902                 1.0483                 1.0921
 Frc consts  --      1.4766                 1.4283                 1.4900
 IR Inten    --      4.3971                 5.9171                10.0102

                     85                     86                     87
                      A                      A                      A
 Frequencies --   1523.4248              1535.0200              1543.0801
 Red. masses --      1.0955                 1.0603                 1.0920
 Frc consts  --      1.4980                 1.4719                 1.5320
 IR Inten    --      4.8233                47.8120                 0.0907

                     88                     89                     90
                      A                      A                      A
 Frequencies --   1568.0556              1628.3788              1674.0935
 Red. masses --      2.3043                 6.3838                 5.6584
 Frc consts  --      3.3383                 9.9734                 9.3434
 IR Inten    --    130.0006                 4.9672                59.3309

                     91                     92                     93
                      A                      A                      A
 Frequencies --   1819.4865              3023.1247              3028.0201
 Red. masses --     11.2231                 1.0349                 1.0610
 Frc consts  --     21.8907                 5.5729                 5.7317
 IR Inten    --    234.2161                59.6879                17.5965

                     94                     95                     96
                      A                      A                      A
 Frequencies --   3032.5310              3033.4384              3040.4919
 Red. masses --      1.0647                 1.0596                 1.0614
 Frc consts  --      5.7690                 5.7448                 5.7810
 IR Inten    --     11.9381                29.5153                35.9155

                     97                     98                     99
                      A                      A                      A
 Frequencies --   3044.0516              3053.7294              3068.8922
 Red. masses --      1.0638                 1.0787                 1.1048
 Frc consts  --      5.8077                 5.9270                 6.1304
 IR Inten    --     37.9210                78.4016                 5.2976

                    100                    101                    102
                      A                      A                      A
 Frequencies --   3072.9422              3075.3594              3081.2127
 Red. masses --      1.1047                 1.1041                 1.1067
 Frc consts  --      6.1462                 6.1524                 6.1902
 IR Inten    --     34.6781                61.1658                43.2943

                    103                    104                    105
                      A                      A                      A
 Frequencies --   3083.4749              3086.4625              3087.4020
 Red. masses --      1.1015                 1.0997                 1.0878
 Frc consts  --      6.1704                 6.1725                 6.1093
 IR Inten    --     33.3944                23.9441                26.0378

                    106                    107                    108
                      A                      A                      A
 Frequencies --   3089.5029              3156.4668              3185.3447
 Red. masses --      1.0890                 1.0995                 1.0878
 Frc consts  --      6.1240                 6.4541                 6.5032
 IR Inten    --     35.1546                30.3162                16.7877

                    109                    110                    111
                      A                      A                      A
 Frequencies --   3204.6246              3221.9619              3223.2423
 Red. masses --      1.0877                 1.0919                 1.0921
 Frc consts  --      6.5813                 6.6784                 6.6848
 IR Inten    --      7.6051                22.6328                 2.4685

 - Thermochemistry -
 -------------------
 Temperature   298.150 Kelvin.  Pressure   1.00000 Atm.
 Atom     1 has atomic number  8 and mass  15.99491

 Molecular mass:   256.14633 amu.
 Principal axes and moments of inertia in atomic units:
                           1         2         3
     Eigenvalues --  1752.754349327.552919990.27196
           X            0.99984  -0.01811  -0.00004
           Y            0.01811   0.99984  -0.00088
           Z            0.00006   0.00088   1.00000
 This molecule is an asymmetric top.
 Rotational symmetry number  1.
 Warning -- assumption of classical behavior for rotation
           may cause significant error
 Rotational temperatures (Kelvin)      0.04942     0.00929     0.00867
 Rotational constants (GHZ):           1.02966     0.19348     0.18065
 Zero-point vibrational energy     889592.1 (Joules/Mol)
                                  212.61761 (Kcal/Mol)
 Warning -- explicit consideration of  24 degrees of freedom as
           vibrations may cause significant error
 Vibrational temperatures:     67.35    72.93   103.92   151.52   189.63
          (Kelvin)            268.89   315.47   362.64   368.64   403.31
                              422.59   470.89   540.05   553.44   596.69
                              612.32   612.94   638.40   645.63   682.43
                              705.23   805.96   835.06   885.07   916.08
                              943.83   979.97  1030.37  1061.27  1133.33
                             1157.79  1167.31  1187.12  1210.64  1243.18
                             1254.46  1295.92  1297.58  1320.69  1353.50
                             1372.83  1389.89  1407.15  1418.04  1464.53
                             1477.55  1510.05  1510.61  1542.02  1550.84
                             1557.11  1578.95  1614.50  1640.42  1658.98
                             1673.44  1705.26  1735.92  1752.49  1758.08
                             1781.41  1783.05  1826.07  1832.97  1866.10
                             1873.86  1876.68  1913.97  1924.18  1941.22
                             1944.28  1955.03  1960.92  1987.16  1998.99
                             2008.50  2010.99  2032.61  2104.04  2158.55
                             2169.31  2181.47  2187.98  2189.44  2191.87
                             2208.55  2220.15  2256.08  2342.87  2408.65
                             2617.84  4349.60  4356.65  4363.14  4364.44
                             4374.59  4379.71  4393.64  4415.45  4421.28
                             4424.76  4433.18  4436.43  4440.73  4442.08
                             4445.11  4541.45  4583.00  4610.74  4635.68
                             4637.53

 Zero-point correction=                           0.338828 (Hartree/Particle)
 Thermal correction to Energy=                    0.353977
 Thermal correction to Enthalpy=                  0.354921
 Thermal correction to Gibbs Free Energy=         0.296688
 Sum of electronic and zero-point Energies=           -809.966857
 Sum of electronic and thermal Energies=              -809.951707
 Sum of electronic and thermal Enthalpies=            -809.950763
 Sum of electronic and thermal Free Energies=         -810.008997

                     E (Thermal)             CV                S
                      KCal/Mol        Cal/Mol-Kelvin    Cal/Mol-Kelvin
 Total                  222.124             63.393            122.563
 Electronic               0.000              0.000              0.000
 Translational            0.889              2.981             42.522
 Rotational               0.889              2.981             33.457
 Vibrational            220.347             57.431             46.584
 Vibration     1          0.595              1.979              4.948
 Vibration     2          0.595              1.977              4.790
 Vibration     3          0.598              1.967              4.092
 Vibration     4          0.605              1.945              3.354
 Vibration     5          0.612              1.922              2.920
 Vibration     6          0.632              1.858              2.258
 Vibration     7          0.647              1.812              1.965
 Vibration     8          0.664              1.759              1.716
 Vibration     9          0.666              1.752              1.687
 Vibration    10          0.680              1.710              1.532
 Vibration    11          0.689              1.685              1.452
 Vibration    12          0.711              1.621              1.273
 Vibration    13          0.746              1.523              1.058
 Vibration    14          0.754              1.503              1.021
 Vibration    15          0.778              1.438              0.910
 Vibration    16          0.787              1.415              0.873
 Vibration    17          0.788              1.414              0.872
 Vibration    18          0.803              1.375              0.815
 Vibration    19          0.808              1.364              0.800
 Vibration    20          0.831              1.307              0.726
 Vibration    21          0.846              1.272              0.683
 Vibration    22          0.916              1.117              0.523
 Vibration    23          0.937              1.074              0.485
 Vibration    24          0.975              1.000              0.424

 Normal termination of Gaussian 16 at Fri Feb 23 21:43:50 2024.
