 Gaussian 16, Revision A.03,
 Gaussian 16:  EM64M-G16RevA.03 25-Dec-2016

 ---------------------
 # freq b3lyp/6-31g(d)
 ---------------------

 ---------
 good luck
 ---------
 Symbolic Z-matrix:
 Charge =  0 Multiplicity = 1

                         Standard orientation:
 ---------------------------------------------------------------------
 Center     Atomic      Atomic             Coordinates (Angstroms)
 Number     Number       Type             X           Y           Z
 ---------------------------------------------------------------------
      1          8           0        3.991975   -1.605800   -1.409872
      2          6           0        3.244054   -0.892591   -0.768385
      3          6           0        2.735264    0.460592   -1.250468
      4          6           0        1.188144    0.411797   -1.299450
      5          6           0        3.187620    1.541958   -0.237411
      6          6           0        2.629547    1.208552    1.160366
      7          6           0        3.168510   -0.161507    1.612701
      8          6           0        2.706331   -1.249820    0.613199
      9          6           0        1.159206   -1.276850    0.551299
     10          6           0        0.588720    0.091922    0.101160
     11          6           0       -0.943104    0.098321    0.031212
     12          6           0       -1.627108    1.265490   -0.362993
     13          6           0       -3.010933    1.316434   -0.442290
     14          6           0       -3.777659    0.185419   -0.125865
     15          8           0       -5.131203    0.332939   -0.234871
     16          6           0       -5.951017   -0.783078    0.070498
     17          6           0       -3.127533   -0.985338    0.268850
     18          6           0       -1.729584   -1.014738    0.342100
     19          6           0        1.089275    1.168149    1.107864
     20          1           0        3.148365    0.654083   -2.245773
     21          1           0        0.813917    1.377327   -1.661568
     22          1           0        0.854717   -0.345054   -2.021083
     23          1           0        4.283745    1.596507   -0.208693
     24          1           0        2.826399    2.524749   -0.569971
     25          1           0        2.947195    1.980336    1.873609
     26          1           0        2.796813   -0.407946    2.616587
     27          1           0        4.264662   -0.143684    1.671400
     28          1           0        3.095922   -2.233890    0.893087
     29          1           0        0.836121   -2.066124   -0.139569
     30          1           0        0.771838   -1.540481    1.544482
     31          1           0       -1.066967    2.161615   -0.616264
     32          1           0       -3.523828    2.223083   -0.748487
     33          1           0       -6.979512   -0.450399   -0.081645
     34          1           0       -5.742714   -1.631912   -0.594506
     35          1           0       -5.824855   -1.104525    1.113082
     36          1           0       -3.687222   -1.878967    0.521192
     37          1           0       -1.264569   -1.944140    0.652298
     38          1           0        0.680497    0.948866    2.103331
     39          1           0        0.704889    2.155166    0.822117
 ---------------------------------------------------------------------

 SCF Done:  E(RB3LYP) =  -810.305735255     A.U. after   14 cycles

 The electronic state is 1-A.
 Alpha  occ. eigenvalues --  -19.17787 -19.12970 -10.26057 -10.24549 -10.24201
 Alpha  occ. eigenvalues --  -10.20580 -10.19358 -10.19194 -10.19114 -10.19005
 Alpha  occ. eigenvalues --  -10.18983 -10.18963 -10.18960 -10.18908 -10.18886
 Alpha  occ. eigenvalues --  -10.18857 -10.18697 -10.18414 -10.18403  -1.06356
 Alpha  occ. eigenvalues --   -1.02785  -0.87786  -0.84846  -0.78956  -0.77882
 Alpha  occ. eigenvalues --   -0.76339  -0.74897  -0.73577  -0.69176  -0.67678
 Alpha  occ. eigenvalues --   -0.64644  -0.61607  -0.60396  -0.59395  -0.57576
 Alpha  occ. eigenvalues --   -0.56238  -0.53500  -0.50662  -0.48068  -0.47647
 Alpha  occ. eigenvalues --   -0.46869  -0.46059  -0.45492  -0.44542  -0.44067
 Alpha  occ. eigenvalues --   -0.43585  -0.43164  -0.42054  -0.41956  -0.41485
 Alpha  occ. eigenvalues --   -0.40349  -0.39752  -0.39571  -0.37491  -0.36825
 Alpha  occ. eigenvalues --   -0.36398  -0.36224  -0.35554  -0.34155  -0.33801
 Alpha  occ. eigenvalues --   -0.33379  -0.32355  -0.31495  -0.29892  -0.29725
 Alpha  occ. eigenvalues --   -0.29201  -0.24936  -0.22734  -0.21456
 Alpha virt. eigenvalues --   -0.00795   0.00033   0.01206   0.06871   0.09230
 Alpha virt. eigenvalues --    0.10294   0.11393   0.11887   0.12809   0.13058
 Alpha virt. eigenvalues --    0.13354   0.14056   0.14487   0.14883   0.15526

 Mulliken charges:
               1
     1  O   -0.460828
     2  C    0.454734
     3  C   -0.166431
     4  C   -0.288113
     5  C   -0.280963
     6  C   -0.095452
     7  C   -0.279761
     8  C   -0.167006
     9  C   -0.307258
    10  C    0.000503
    11  C    0.166768
    12  C   -0.188893
    13  C   -0.177075
    14  C    0.379664
    15  O   -0.508959
    16  C   -0.213975
    17  C   -0.202403
    18  C   -0.203497
    19  C   -0.273217
    20  H    0.142342
    21  H    0.139178
    22  H    0.149473
    23  H    0.144052
    24  H    0.136135
    25  H    0.126024
    26  H    0.137514
    27  H    0.143900
    28  H    0.141306
    29  H    0.148542
    30  H    0.141087
    31  H    0.125872
    32  H    0.136831
    33  H    0.169603
    34  H    0.151876
    35  H    0.151150
    36  H    0.129734
    37  H    0.128998
    38  H    0.135938
    39  H    0.132607
 Sum of Mulliken charges =  -0.00000

 Dipole moment (field-independent basis, Debye):
    X=             -2.5026    Y=              0.7777    Z=              2.0140  Tot=              3.3052
 Quadrupole moment (field-independent basis, Debye-Ang):
   XX=           -113.8352   YY=           -110.5494   ZZ=           -115.0526
   XY=             16.0063   XZ=              6.3406   YZ=             -5.5545

  Exact polarizability: 236.266   2.443 158.210  -0.406  -8.989 126.492
 Approx polarizability: 305.525  -5.125 268.173  -3.528 -19.075 197.442

                      1                      2                      3
                      A                      A                      A
 Frequencies --     38.8999                58.7338                83.4861
 Red. masses --      3.7408                 4.4076                 5.8148
 Frc consts  --      0.0033                 0.0090                 0.0239
 IR Inten    --      0.9417                 0.5839                 4.2151

                      4                      5                      6
                      A                      A                      A
 Frequencies --    102.2236               118.6026               197.1847
 Red. masses --      3.7621                 4.6126                 2.8163
 Frc consts  --      0.0232                 0.0382                 0.0645
 IR Inten    --      2.1187                 0.3591                 0.7563

                      7                      8                      9
                      A                      A                      A
 Frequencies --    208.8523               248.1905               260.8762
 Red. masses --      3.5713                 2.3830                 1.6148
 Frc consts  --      0.0918                 0.0865                 0.0647
 IR Inten    --      0.6670                 0.4375                 0.6858

                     10                     11                     12
                      A                      A                      A
 Frequencies --    279.5762               299.7501               340.6971
 Red. masses --      2.4204                 2.6493                 3.0824
 Frc consts  --      0.1115                 0.1402                 0.2108
 IR Inten    --      1.0990                 1.1939                 0.3320

                     13                     14                     15
                      A                      A                      A
 Frequencies --    370.3412               375.7383               411.8458
 Red. masses --      4.1919                 4.0982                 3.7681
 Frc consts  --      0.3387                 0.3409                 0.3766
 IR Inten    --      0.7003                 1.2435                 0.6687

                     16                     17                     18
                      A                      A                      A
 Frequencies --    422.8977               430.0180               442.8877
 Red. masses --      2.8179                 2.7923                 2.2589
 Frc consts  --      0.2969                 0.3042                 0.2611
 IR Inten    --      0.3838                 0.4888                 1.9749

                     19                     20                     21
                      A                      A                      A
 Frequencies --    448.9752               474.7382               491.9675
 Red. masses --      2.1101                 3.9700                 3.5797
 Frc consts  --      0.2506                 0.5272                 0.5105
 IR Inten    --      1.5628                 5.3258                 2.6507

                     22                     23                     24
                      A                      A                      A
 Frequencies --    558.7843               580.0479               617.0902
 Red. masses --      2.3386                 5.4716                 5.4486
 Frc consts  --      0.4302                 1.0847                 1.2225
 IR Inten    --      8.3623                15.2690                 0.1158

                     25                     26                     27
                      A                      A                      A
 Frequencies --    635.9621               656.7765               681.7328
 Red. masses --      3.7187                 6.5437                 4.5739
 Frc consts  --      0.8861                 1.6631                 1.2525
 IR Inten    --      1.4094                 1.0648                 0.9550

                     28                     29                     30
                      A                      A                      A
 Frequencies --    719.1755               737.0763               788.1322
 Red. masses --      3.9727                 4.3977                 3.7811
 Frc consts  --      1.2106                 1.4077                 1.3838
 IR Inten    --      2.9843                 0.8388                 1.2332

                     31                     32                     33
                      A                      A                      A
 Frequencies --    799.5936               813.5432               823.0415
 Red. masses --      3.2548                 4.0409                 1.3084
 Frc consts  --      1.2261                 1.5758                 0.5222
 IR Inten    --      0.9488                 7.0803                 9.2357

                     34                     35                     36
                      A                      A                      A
 Frequencies --    844.4259               861.2961               873.7623
 Red. masses --      1.7008                 2.5221                 3.6504
 Frc consts  --      0.7145                 1.1024                 1.6420
 IR Inten    --     34.9225                 2.3188                 2.8832

                     37                     38                     39
                      A                      A                      A
 Frequencies --    896.1391               904.2354               914.4285
 Red. masses --      1.5967                 1.5782                 2.1377
 Frc consts  --      0.7555                 0.7603                 1.0532
 IR Inten    --      2.4673                 0.1784                 3.3160

                     40                     41                     42
                      A                      A                      A
 Frequencies --    940.7077               955.7434               963.9234
 Red. masses --      1.4393                 1.9152                 1.4291
 Frc consts  --      0.7505                 1.0307                 0.7824
 IR Inten    --      0.8892                 0.1954                 0.4095

                     43                     44                     45
                      A                      A                      A
 Frequencies --    978.5491               984.9538              1017.4681
 Red. masses --      2.2431                 2.1469                 2.0561
 Frc consts  --      1.2655                 1.2271                 1.2541
 IR Inten    --      2.1105                 1.0275                 2.9174

                     46                     47                     48
                      A                      A                      A
 Frequencies --   1026.9744              1049.1279              1051.3703
 Red. masses --      3.7523                 3.6347                 2.3439
 Frc consts  --      2.3316                 2.3571                 1.5265
 IR Inten    --      4.7070                 6.5458                 0.7639

                     49                     50                     51
                      A                      A                      A
 Frequencies --   1071.4996              1079.7058              1082.2530
 Red. masses --      1.9739                 1.8672                 5.1944
 Frc consts  --      1.3353                 1.2825                 3.5846
 IR Inten    --      4.2357                23.8832                52.0100

                     52                     53                     54
                      A                      A                      A
 Frequencies --   1096.1088              1124.1337              1135.9785
 Red. masses --      1.7691                 1.4506                 1.3007
 Frc consts  --      1.2523                 1.0801                 0.9889
 IR Inten    --      1.4965                 0.4597                 0.0835

                     55                     56                     57
                      A                      A                      A
 Frequencies --   1151.0593              1164.8380              1185.3318
 Red. masses --      1.2949                 1.1165                 1.2710
 Frc consts  --      1.0109                 0.8925                 1.0521
 IR Inten    --      5.8000                 0.3311                 0.7457

                     58                     59                     60
                      A                      A                      A
 Frequencies --   1209.4148              1218.9965              1222.1495
 Red. masses --      1.1520                 1.3912                 1.2290
 Frc consts  --      0.9928                 1.2180                 1.0815
 IR Inten    --      2.4221                 2.2271                58.1945

                     61                     62                     63
                      A                      A                      A
 Frequencies --   1230.4103              1241.2252              1269.3558
 Red. masses --      3.1129                 2.0228                 1.5266
 Frc consts  --      2.7766                 1.8361                 1.4492
 IR Inten    --      3.7719                11.4981                 5.1695

                     64                     65                     66
                      A                      A                      A
 Frequencies --   1274.5897              1293.8064              1302.9618
 Red. masses --      1.6133                 1.8448                 2.1242
 Frc consts  --      1.5442                 1.8194                 2.1248
 IR Inten    --      0.8802                71.8816               128.9851

                     67                     68                     69
                      A                      A                      A
 Frequencies --   1307.4564              1329.6514              1338.8754
 Red. masses --      1.7595                 1.5842                 1.7900
 Frc consts  --      1.7721                 1.6502                 1.8906
 IR Inten    --     63.0331                 3.7300                 2.4233

                     70                     71                     72
                      A                      A                      A
 Frequencies --   1349.3327              1353.1109              1358.1566
 Red. masses --      1.3852                 1.6564                 3.0239
 Frc consts  --      1.4860                 1.7868                 3.2864
 IR Inten    --      4.6756                16.6128                34.7486

                     73                     74                     75
                      A                      A                      A
 Frequencies --   1364.4812              1382.4483              1388.7910
 Red. masses --      1.5079                 1.7406                 1.4983
 Frc consts  --      1.6541                 1.9599                 1.7026
 IR Inten    --      8.9184                 3.7218                 0.7451

                     76                     77                     78
                      A                      A                      A
 Frequencies --   1395.1812              1399.7619              1410.6790
 Red. masses --      1.5165                 1.5455                 1.4507
 Frc consts  --      1.7392                 1.7841                 1.7009
 IR Inten    --      1.5141                 1.3736                 0.0778

                     79                     80                     81
                      A                      A                      A
 Frequencies --   1462.6328              1499.8301              1509.2739
 Red. masses --      3.0050                 1.1892                 1.0853
 Frc consts  --      3.7876                 1.5761                 1.4566
 IR Inten    --      2.8946                18.5023                 0.3533

                     82                     83                     84
                      A                      A                      A
 Frequencies --   1512.8234              1520.5296              1522.3072
 Red. masses --      1.0893                 1.0482                 1.0940
 Frc consts  --      1.4688                 1.4278                 1.4937
 IR Inten    --      3.0657                 5.3803                 9.1959

                     85                     86                     87
                      A                      A                      A
 Frequencies --   1526.4243              1534.9329              1542.8341
 Red. masses --      1.0934                 1.0622                 1.0916
 Frc consts  --      1.5010                 1.4745                 1.5309
 IR Inten    --      8.2551                46.9858                 0.5224

                     88                     89                     90
                      A                      A                      A
 Frequencies --   1566.8555              1629.6061              1674.9498
 Red. masses --      2.3317                 6.2524                 5.6902
 Frc consts  --      3.3727                 9.7828                 9.4055
 IR Inten    --    120.8460                17.3143                56.1787

                     91                     92                     93
                      A                      A                      A
 Frequencies --   1821.0450              3023.8031              3031.3787
 Red. masses --     11.2157                 1.0348                 1.0653
 Frc consts  --     21.9138                 5.5748                 5.7678
 IR Inten    --    240.6117                59.8898                14.6690

                     94                     95                     96
                      A                      A                      A
 Frequencies --   3032.1023              3033.4127              3037.0923
 Red. masses --      1.0597                 1.0605                 1.0625
 Frc consts  --      5.7401                 5.7492                 5.7740
 IR Inten    --      2.9735                39.7202                32.9889

                     97                     98                     99
                      A                      A                      A
 Frequencies --   3044.4505              3054.0058              3070.4930
 Red. masses --      1.0615                 1.0771                 1.1051
 Frc consts  --      5.7966                 5.9191                 6.1384
 IR Inten    --     45.2659                76.1397                 3.6333

                    100                    101                    102
                      A                      A                      A
 Frequencies --   3074.3073              3075.1947              3079.5846
 Red. masses --      1.1042                 1.1043                 1.1038
 Frc consts  --      6.1487                 6.1531                 6.1675
 IR Inten    --     31.8881                40.1415                38.6440

                    103                    104                    105
                      A                      A                      A
 Frequencies --   3082.0304              3083.7198              3087.4805
 Red. masses --      1.1066                 1.1045                 1.0861
 Frc consts  --      6.1934                 6.1885                 6.1001
 IR Inten    --     44.8677                36.9577                41.2174

                    106                    107                    108
                      A                      A                      A
 Frequencies --   3089.4427              3156.3168              3187.1335
 Red. masses --      1.0867                 1.0996                 1.0872
 Frc consts  --      6.1111                 6.4542                 6.5066
 IR Inten    --     23.3656                29.7736                16.7858

                    109                    110                    111
                      A                      A                      A
 Frequencies --   3209.6796              3212.8688              3226.3604
 Red. masses --      1.0868                 1.0931                 1.0926
 Frc consts  --      6.5965                 6.6482                 6.7010
 IR Inten    --     13.6949                 7.8289                12.7501

 - Thermochemistry -
 -------------------
 Temperature   298.150 Kelvin.  Pressure   1.00000 Atm.
 Atom     1 has atomic number  8 and mass  15.99491

 Molecular mass:   256.14633 amu.
 Principal axes and moments of inertia in atomic units:
                           1         2         3
     Eigenvalues --  1704.270229574.348759902.33632
           X            0.99989   0.01453   0.00364
           Y           -0.01416   0.99612  -0.08689
           Z           -0.00489   0.08683   0.99621
 This molecule is an asymmetric top.
 Rotational symmetry number  1.
 Warning -- assumption of classical behavior for rotation
           may cause significant error
 Rotational temperatures (Kelvin)      0.05082     0.00905     0.00875
 Rotational constants (GHZ):           1.05895     0.18850     0.18225
 Zero-point vibrational energy     889586.2 (Joules/Mol)
                                  212.61619 (Kcal/Mol)
 Warning -- explicit consideration of  24 degrees of freedom as
           vibrations may cause significant error
 Vibrational temperatures:     55.97    84.50   120.12   147.08   170.64
          (Kelvin)            283.70   300.49   357.09   375.34   402.25
                              431.27   490.19   532.84   540.60   592.55
                              608.46   618.70   637.22   645.98   683.04
                              707.83   803.97   834.56   887.86   915.01
                              944.95   980.86  1034.73  1060.49  1133.95
                             1150.44  1170.51  1184.17  1214.94  1239.21
                             1257.15  1289.34  1300.99  1315.66  1353.47
                             1375.10  1386.87  1407.91  1417.13  1463.91
                             1477.59  1509.46  1512.69  1541.65  1553.46
                             1557.12  1577.06  1617.38  1634.42  1656.12
                             1675.94  1705.43  1740.08  1753.86  1758.40
                             1770.29  1785.85  1826.32  1833.85  1861.50
                             1874.67  1881.14  1913.07  1926.34  1941.39
                             1946.82  1954.08  1963.18  1989.03  1998.16
                             2007.35  2013.95  2029.65  2104.40  2157.92
                             2171.51  2176.62  2187.70  2190.26  2196.18
                             2208.43  2219.79  2254.36  2344.64  2409.88
                             2620.08  4350.58  4361.48  4362.52  4364.40
                             4369.70  4380.29  4394.03  4417.75  4423.24
                             4424.52  4430.84  4434.35  4436.78  4442.20
                             4445.02  4541.24  4585.57  4618.01  4622.60
                             4642.01

 Zero-point correction=                           0.338825 (Hartree/Particle)
 Thermal correction to Energy=                    0.353974
 Thermal correction to Enthalpy=                  0.354918
 Thermal correction to Gibbs Free Energy=         0.296689
 Sum of electronic and zero-point Energies=           -809.966910
 Sum of electronic and thermal Energies=              -809.951761
 Sum of electronic and thermal Enthalpies=            -809.950817
 Sum of electronic and thermal Free Energies=         -810.009047

                     E (Thermal)             CV                S
                      KCal/Mol        Cal/Mol-Kelvin    Cal/Mol-Kelvin
 Total                  222.122             63.398            122.555
 Electronic               0.000              0.000              0.000
 Translational            0.889              2.981             42.522
 Rotational               0.889              2.981             33.446
 Vibrational            220.345             57.436             46.587
 Vibration     1          0.594              1.981              5.314
 Vibration     2          0.596              1.974              4.499
 Vibration     3          0.600              1.961              3.807
 Vibration     4          0.604              1.947              3.411
 Vibration     5          0.609              1.934              3.123
 Vibration     6          0.637              1.844              2.159
 Vibration     7          0.642              1.827              2.054
 Vibration     8          0.662              1.766              1.743
 Vibration     9          0.669              1.744              1.656
 Vibration    10          0.680              1.711              1.536
 Vibration    11          0.692              1.674              1.418
 Vibration    12          0.720              1.594              1.209
 Vibration    13          0.742              1.533              1.078
 Vibration    14          0.747              1.522              1.056
 Vibration    15          0.776              1.445              0.920
 Vibration    16          0.785              1.420              0.882
 Vibration    17          0.791              1.405              0.859
 Vibration    18          0.803              1.377              0.818
 Vibration    19          0.808              1.363              0.799
 Vibration    20          0.831              1.306              0.724
 Vibration    21          0.848              1.268              0.679
 Vibration    22          0.914              1.121              0.526
 Vibration    23          0.937              1.074              0.485
 Vibration    24          0.977              0.996              0.421

 Normal termination of Gaussian 16 at Fri Feb 23 21:33:35 2024.
