 Gaussian 16, Revision A.03,
 Gaussian 16:  EM64M-G16RevA.03 25-Dec-2016

 ---------------------
 # freq b3lyp/6-31g(d)
 ---------------------

 ---------
 good luck
 ---------
 Symbolic Z-matrix:
 Charge =  0 Multiplicity = 1

                         Standard orientation:
 ---------------------------------------------------------------------
 Center     Atomic      Atomic             Coordinates (Angstroms)
 Number     Number       Type             X           Y           Z
 ---------------------------------------------------------------------
      1          8           0       -3.991438   -1.606084   -1.410172
      2          6           0       -3.243920   -0.892654   -0.768443
      3          6           0       -2.706265   -1.249904    0.613122
      4          6           0       -1.159095   -1.276794    0.551154
      5          6           0       -3.168439   -0.161727    1.612772
      6          6           0       -2.629590    1.208429    1.160565
      7          6           0       -3.187813    1.541954   -0.237128
      8          6           0       -2.735519    0.460722   -1.250348
      9          6           0       -1.188364    0.412045   -1.299487
     10          6           0       -0.588795    0.092057    0.101045
     11          6           0        0.943021    0.098468    0.031047
     12          6           0        1.729449   -1.014550    0.342252
     13          6           0        3.127406   -0.985237    0.269118
     14          6           0        3.777658    0.185457   -0.125731
     15          8           0        5.131237    0.332883   -0.234784
     16          6           0        5.951117   -0.783193    0.070451
     17          6           0        3.010995    1.316417   -0.442456
     18          6           0        1.627135    1.265515   -0.363323
     19          6           0       -1.089329    1.168148    1.107943
     20          1           0       -3.095703   -2.234054    0.892958
     21          1           0       -0.771772   -1.540354    1.544365
     22          1           0       -0.835892   -2.066047   -0.139694
     23          1           0       -2.796610   -0.408277    2.616576
     24          1           0       -4.264589   -0.143988    1.671589
     25          1           0       -2.947252    1.980096    1.873936
     26          1           0       -4.283938    1.596491   -0.208296
     27          1           0       -2.826637    2.524780   -0.569628
     28          1           0       -3.148675    0.654271   -2.245619
     29          1           0       -0.814339    1.377676   -1.661520
     30          1           0       -0.854998   -0.344663   -2.021299
     31          1           0        1.264337   -1.943900    0.652531
     32          1           0        3.687017   -1.878871    0.521608
     33          1           0        6.979651   -0.450215   -0.080743
     34          1           0        5.824154   -1.105309    1.112733
     35          1           0        5.743389   -1.631618   -0.595252
     36          1           0        3.523928    2.223014   -0.748781
     37          1           0        1.067087    2.161665   -0.616759
     38          1           0       -0.680463    0.948778    2.103359
     39          1           0       -0.704998    2.155205    0.822252
 ---------------------------------------------------------------------

 SCF Done:  E(RB3LYP) =  -810.305735192     A.U. after   14 cycles

 The electronic state is 1-A.
 Alpha  occ. eigenvalues --  -19.17786 -19.12970 -10.26057 -10.24549 -10.24202
 Alpha  occ. eigenvalues --  -10.20580 -10.19358 -10.19194 -10.19114 -10.19005
 Alpha  occ. eigenvalues --  -10.18983 -10.18963 -10.18960 -10.18908 -10.18886
 Alpha  occ. eigenvalues --  -10.18858 -10.18698 -10.18414 -10.18403  -1.06353
 Alpha  occ. eigenvalues --   -1.02784  -0.87786  -0.84846  -0.78956  -0.77882
 Alpha  occ. eigenvalues --   -0.76339  -0.74896  -0.73577  -0.69176  -0.67678
 Alpha  occ. eigenvalues --   -0.64644  -0.61607  -0.60396  -0.59395  -0.57576
 Alpha  occ. eigenvalues --   -0.56238  -0.53498  -0.50661  -0.48067  -0.47647
 Alpha  occ. eigenvalues --   -0.46867  -0.46059  -0.45492  -0.44541  -0.44067
 Alpha  occ. eigenvalues --   -0.43585  -0.43164  -0.42054  -0.41956  -0.41484
 Alpha  occ. eigenvalues --   -0.40349  -0.39752  -0.39571  -0.37490  -0.36824
 Alpha  occ. eigenvalues --   -0.36398  -0.36224  -0.35554  -0.34155  -0.33800
 Alpha  occ. eigenvalues --   -0.33379  -0.32354  -0.31495  -0.29892  -0.29725
 Alpha  occ. eigenvalues --   -0.29201  -0.24936  -0.22733  -0.21456
 Alpha virt. eigenvalues --   -0.00795   0.00034   0.01206   0.06870   0.09229
 Alpha virt. eigenvalues --    0.10293   0.11392   0.11887   0.12809   0.13058
 Alpha virt. eigenvalues --    0.13354   0.14056   0.14487   0.14883   0.15525

 Mulliken charges:
               1
     1  O   -0.460842
     2  C    0.454748
     3  C   -0.167009
     4  C   -0.307278
     5  C   -0.279756
     6  C   -0.095453
     7  C   -0.280949
     8  C   -0.166436
     9  C   -0.288138
    10  C    0.000516
    11  C    0.166764
    12  C   -0.203480
    13  C   -0.202408
    14  C    0.379666
    15  O   -0.509000
    16  C   -0.213958
    17  C   -0.177069
    18  C   -0.188904
    19  C   -0.273211
    20  H    0.141306
    21  H    0.141093
    22  H    0.148555
    23  H    0.137513
    24  H    0.143897
    25  H    0.126024
    26  H    0.144045
    27  H    0.136132
    28  H    0.142344
    29  H    0.139182
    30  H    0.149485
    31  H    0.129001
    32  H    0.129728
    33  H    0.169613
    34  H    0.151151
    35  H    0.151885
    36  H    0.136832
    37  H    0.125864
    38  H    0.135940
    39  H    0.132608
 Sum of Mulliken charges =  -0.00000

 Dipole moment (field-independent basis, Debye):
    X=              2.5021    Y=              0.7780    Z=              2.0145  Tot=              3.3052
 Quadrupole moment (field-independent basis, Debye-Ang):
   XX=           -113.8274   YY=           -110.5515   ZZ=           -115.0533
   XY=            -16.0077   XZ=             -6.3415   YZ=             -5.5573

  Exact polarizability: 236.268  -2.445 158.211   0.407  -8.992 126.497
 Approx polarizability: 305.528   5.123 268.170   3.533 -19.084 197.453

                      1                      2                      3
                      A                      A                      A
 Frequencies --     38.9824                58.7838                83.5208
 Red. masses --      3.7425                 4.4104                 5.8127
 Frc consts  --      0.0034                 0.0090                 0.0239
 IR Inten    --      0.9404                 0.5866                 4.2103

                      4                      5                      6
                      A                      A                      A
 Frequencies --    102.2684               118.6174               197.1922
 Red. masses --      3.7608                 4.6105                 2.8161
 Frc consts  --      0.0232                 0.0382                 0.0645
 IR Inten    --      2.1230                 0.3594                 0.7539

                      7                      8                      9
                      A                      A                      A
 Frequencies --    208.8289               248.1749               260.8960
 Red. masses --      3.5688                 2.3803                 1.6157
 Frc consts  --      0.0917                 0.0864                 0.0648
 IR Inten    --      0.6705                 0.4369                 0.6846

                     10                     11                     12
                      A                      A                      A
 Frequencies --    279.5959               299.7420               340.7211
 Red. masses --      2.4214                 2.6508                 3.0808
 Frc consts  --      0.1115                 0.1403                 0.2107
 IR Inten    --      1.0999                 1.1944                 0.3313

                     13                     14                     15
                      A                      A                      A
 Frequencies --    370.3390               375.7381               411.8470
 Red. masses --      4.1924                 4.0988                 3.7694
 Frc consts  --      0.3388                 0.3409                 0.3767
 IR Inten    --      0.7006                 1.2439                 0.6703

                     16                     17                     18
                      A                      A                      A
 Frequencies --    422.9044               430.0286               442.8838
 Red. masses --      2.8181                 2.7924                 2.2593
 Frc consts  --      0.2970                 0.3042                 0.2611
 IR Inten    --      0.3834                 0.4890                 1.9676

                     19                     20                     21
                      A                      A                      A
 Frequencies --    448.9974               474.7375               491.9597
 Red. masses --      2.1096                 3.9706                 3.5795
 Frc consts  --      0.2506                 0.5272                 0.5104
 IR Inten    --      1.5689                 5.3219                 2.6561

                     22                     23                     24
                      A                      A                      A
 Frequencies --    558.8076               580.0409               617.0680
 Red. masses --      2.3388                 5.4717                 5.4491
 Frc consts  --      0.4303                 1.0846                 1.2225
 IR Inten    --      8.3613                15.2755                 0.1163

                     25                     26                     27
                      A                      A                      A
 Frequencies --    635.9681               656.7755               681.7337
 Red. masses --      3.7189                 6.5428                 4.5736
 Frc consts  --      0.8862                 1.6628                 1.2524
 IR Inten    --      1.4077                 1.0653                 0.9532

                     28                     29                     30
                      A                      A                      A
 Frequencies --    719.1971               737.0773               788.1311
 Red. masses --      3.9726                 4.3980                 3.7814
 Frc consts  --      1.2107                 1.4078                 1.3839
 IR Inten    --      2.9837                 0.8380                 1.2349

                     31                     32                     33
                      A                      A                      A
 Frequencies --    799.5916               813.5169               823.0606
 Red. masses --      3.2564                 4.0382                 1.3086
 Frc consts  --      1.2267                 1.5746                 0.5223
 IR Inten    --      0.9507                 7.0751                 9.2525

                     34                     35                     36
                      A                      A                      A
 Frequencies --    844.4534               861.2973               873.7468
 Red. masses --      1.7006                 2.5217                 3.6503
 Frc consts  --      0.7145                 1.1022                 1.6419
 IR Inten    --     34.9014                 2.3251                 2.8841

                     37                     38                     39
                      A                      A                      A
 Frequencies --    896.1507               904.2351               914.4316
 Red. masses --      1.5967                 1.5782                 2.1382
 Frc consts  --      0.7555                 0.7603                 1.0534
 IR Inten    --      2.4664                 0.1791                 3.3185

                     40                     41                     42
                      A                      A                      A
 Frequencies --    940.7520               955.7331               963.9363
 Red. masses --      1.4398                 1.9159                 1.4284
 Frc consts  --      0.7508                 1.0311                 0.7820
 IR Inten    --      0.8873                 0.1945                 0.4107

                     43                     44                     45
                      A                      A                      A
 Frequencies --    978.5379               984.9459              1017.4638
 Red. masses --      2.2429                 2.1467                 2.0561
 Frc consts  --      1.2654                 1.2270                 1.2541
 IR Inten    --      2.1103                 1.0254                 2.9174

                     46                     47                     48
                      A                      A                      A
 Frequencies --   1026.9674              1049.1153              1051.3487
 Red. masses --      3.7525                 3.6331                 2.3459
 Frc consts  --      2.3318                 2.3560                 1.5277
 IR Inten    --      4.7019                 6.5777                 0.7774

                     49                     50                     51
                      A                      A                      A
 Frequencies --   1071.4715              1079.7326              1082.1244
 Red. masses --      1.9748                 1.8664                 5.1933
 Frc consts  --      1.3358                 1.2820                 3.5830
 IR Inten    --      4.2059                23.8683                52.0644

                     52                     53                     54
                      A                      A                      A
 Frequencies --   1096.0904              1124.1402              1135.9792
 Red. masses --      1.7689                 1.4507                 1.3006
 Frc consts  --      1.2521                 1.0801                 0.9889
 IR Inten    --      1.4839                 0.4596                 0.0834

                     55                     56                     57
                      A                      A                      A
 Frequencies --   1151.0617              1164.8338              1185.3181
 Red. masses --      1.2950                 1.1165                 1.2710
 Frc consts  --      1.0109                 0.8925                 1.0521
 IR Inten    --      5.8005                 0.3305                 0.7449

                     58                     59                     60
                      A                      A                      A
 Frequencies --   1209.4051              1218.9658              1222.1569
 Red. masses --      1.1521                 1.3916                 1.2288
 Frc consts  --      0.9928                 1.2182                 1.0814
 IR Inten    --      2.4186                 2.2905                58.2206

                     61                     62                     63
                      A                      A                      A
 Frequencies --   1230.4102              1241.2251              1269.3400
 Red. masses --      3.1138                 2.0223                 1.5265
 Frc consts  --      2.7774                 1.8357                 1.4491
 IR Inten    --      3.7707                11.5299                 5.1811

                     64                     65                     66
                      A                      A                      A
 Frequencies --   1274.5977              1293.7790              1302.9166
 Red. masses --      1.6130                 1.8486                 2.1221
 Frc consts  --      1.5440                 1.8231                 2.1225
 IR Inten    --      0.8812                72.4689               129.1358

                     67                     68                     69
                      A                      A                      A
 Frequencies --   1307.4217              1329.6516              1338.8606
 Red. masses --      1.7572                 1.5843                 1.7904
 Frc consts  --      1.7697                 1.6503                 1.8909
 IR Inten    --     62.3469                 3.7250                 2.4245

                     70                     71                     72
                      A                      A                      A
 Frequencies --   1349.3376              1353.1002              1358.1162
 Red. masses --      1.3858                 1.6599                 3.0210
 Frc consts  --      1.4866                 1.7906                 3.2830
 IR Inten    --      4.7017                16.7505                34.6515

                     73                     74                     75
                      A                      A                      A
 Frequencies --   1364.4696              1382.4555              1388.7907
 Red. masses --      1.5051                 1.7406                 1.4981
 Frc consts  --      1.6509                 1.9600                 1.7025
 IR Inten    --      8.7679                 3.7131                 0.7458

                     76                     77                     78
                      A                      A                      A
 Frequencies --   1395.1812              1399.7652              1410.6634
 Red. masses --      1.5165                 1.5455                 1.4506
 Frc consts  --      1.7392                 1.7842                 1.7008
 IR Inten    --      1.5192                 1.3746                 0.0774

                     79                     80                     81
                      A                      A                      A
 Frequencies --   1462.6105              1499.7861              1509.2688
 Red. masses --      3.0043                 1.1892                 1.0853
 Frc consts  --      3.7867                 1.5760                 1.4566
 IR Inten    --      2.8918                18.4867                 0.3546

                     82                     83                     84
                      A                      A                      A
 Frequencies --   1512.8230              1520.4945              1522.3017
 Red. masses --      1.0893                 1.0482                 1.0940
 Frc consts  --      1.4688                 1.4277                 1.4937
 IR Inten    --      3.0616                 5.3844                 9.1922

                     85                     86                     87
                      A                      A                      A
 Frequencies --   1526.4231              1534.9296              1542.8330
 Red. masses --      1.0934                 1.0622                 1.0916
 Frc consts  --      1.5011                 1.4745                 1.5309
 IR Inten    --      8.2625                46.9508                 0.5238

                     88                     89                     90
                      A                      A                      A
 Frequencies --   1566.8485              1629.5464              1674.9138
 Red. masses --      2.3313                 6.2515                 5.6895
 Frc consts  --      3.3721                 9.7807                 9.4040
 IR Inten    --    120.8887                17.2994                56.1076

                     91                     92                     93
                      A                      A                      A
 Frequencies --   1821.0072              3023.7989              3031.3756
 Red. masses --     11.2151                 1.0348                 1.0654
 Frc consts  --     21.9117                 5.5748                 5.7680
 IR Inten    --    240.5981                59.8819                14.6106

                     94                     95                     96
                      A                      A                      A
 Frequencies --   3032.1077              3033.4231              3037.0780
 Red. masses --      1.0597                 1.0605                 1.0625
 Frc consts  --      5.7399                 5.7493                 5.7739
 IR Inten    --      2.9874                39.6372                33.1205

                     97                     98                     99
                      A                      A                      A
 Frequencies --   3044.4744              3053.9836              3070.4894
 Red. masses --      1.0615                 1.0771                 1.1051
 Frc consts  --      5.7967                 5.9189                 6.1384
 IR Inten    --     45.3120                76.0788                 3.6544

                    100                    101                    102
                      A                      A                      A
 Frequencies --   3074.3065              3075.1967              3079.5757
 Red. masses --      1.1042                 1.1043                 1.1038
 Frc consts  --      6.1488                 6.1531                 6.1675
 IR Inten    --     31.9740                40.0215                38.7552

                    103                    104                    105
                      A                      A                      A
 Frequencies --   3082.0324              3083.7553              3087.4633
 Red. masses --      1.1066                 1.1045                 1.0861
 Frc consts  --      6.1935                 6.1886                 6.1000
 IR Inten    --     44.8592                36.8799                41.2651

                    106                    107                    108
                      A                      A                      A
 Frequencies --   3089.4143              3156.3781              3187.0226
 Red. masses --      1.0867                 1.0996                 1.0872
 Frc consts  --      6.1110                 6.4545                 6.5062
 IR Inten    --     23.2821                29.7540                16.7859

                    109                    110                    111
                      A                      A                      A
 Frequencies --   3209.5596              3212.7661              3226.3028
 Red. masses --      1.0868                 1.0931                 1.0926
 Frc consts  --      6.5960                 6.6478                 6.7007
 IR Inten    --     13.6878                 7.8041                12.7869

 - Thermochemistry -
 -------------------
 Temperature   298.150 Kelvin.  Pressure   1.00000 Atm.
 Atom     1 has atomic number  8 and mass  15.99491

 Molecular mass:   256.14633 amu.
 Principal axes and moments of inertia in atomic units:
                           1         2         3
     Eigenvalues --  1704.412179574.309869902.25271
           X            0.99989  -0.01454  -0.00364
           Y            0.01416   0.99611  -0.08694
           Z            0.00489   0.08688   0.99621
 This molecule is an asymmetric top.
 Rotational symmetry number  1.
 Warning -- assumption of classical behavior for rotation
           may cause significant error
 Rotational temperatures (Kelvin)      0.05082     0.00905     0.00875
 Rotational constants (GHZ):           1.05886     0.18850     0.18226
 Zero-point vibrational energy     889582.0 (Joules/Mol)
                                  212.61520 (Kcal/Mol)
 Warning -- explicit consideration of  24 degrees of freedom as
           vibrations may cause significant error
 Vibrational temperatures:     56.09    84.58   120.17   147.14   170.66
          (Kelvin)            283.72   300.46   357.07   375.37   402.28
                              431.26   490.22   532.84   540.60   592.56
                              608.47   618.72   637.21   646.01   683.04
                              707.82   804.00   834.55   887.82   915.02
                              944.95   980.86  1034.76  1060.49  1133.94
                             1150.43  1170.47  1184.20  1214.98  1239.21
                             1257.13  1289.36  1300.99  1315.66  1353.53
                             1375.09  1386.89  1407.90  1417.12  1463.90
                             1477.58  1509.44  1512.66  1541.61  1553.49
                             1556.94  1577.03  1617.39  1634.42  1656.12
                             1675.94  1705.41  1740.06  1753.82  1758.41
                             1770.29  1785.85  1826.30  1833.86  1861.46
                             1874.61  1881.09  1913.07  1926.32  1941.40
                             1946.81  1954.03  1963.17  1989.05  1998.16
                             2007.35  2013.95  2029.63  2104.37  2157.86
                             2171.50  2176.61  2187.65  2190.25  2196.18
                             2208.42  2219.79  2254.35  2344.55  2409.83
                             2620.02  4350.57  4361.47  4362.53  4364.42
                             4369.68  4380.32  4394.00  4417.75  4423.24
                             4424.52  4430.82  4434.36  4436.84  4442.17
                             4444.98  4541.32  4585.41  4617.84  4622.45
                             4641.93

 Zero-point correction=                           0.338824 (Hartree/Particle)
 Thermal correction to Energy=                    0.353972
 Thermal correction to Enthalpy=                  0.354916
 Thermal correction to Gibbs Free Energy=         0.296690
 Sum of electronic and zero-point Energies=           -809.966911
 Sum of electronic and thermal Energies=              -809.951763
 Sum of electronic and thermal Enthalpies=            -809.950819
 Sum of electronic and thermal Free Energies=         -810.009045

                     E (Thermal)             CV                S
                      KCal/Mol        Cal/Mol-Kelvin    Cal/Mol-Kelvin
 Total                  222.121             63.398            122.547
 Electronic               0.000              0.000              0.000
 Translational            0.889              2.981             42.522
 Rotational               0.889              2.981             33.446
 Vibrational            220.343             57.436             46.579
 Vibration     1          0.594              1.981              5.310
 Vibration     2          0.596              1.974              4.498
 Vibration     3          0.600              1.961              3.806
 Vibration     4          0.604              1.947              3.411
 Vibration     5          0.609              1.934              3.123
 Vibration     6          0.637              1.844              2.159
 Vibration     7          0.642              1.827              2.054
 Vibration     8          0.662              1.766              1.744
 Vibration     9          0.669              1.744              1.656
 Vibration    10          0.680              1.711              1.536
 Vibration    11          0.692              1.674              1.418
 Vibration    12          0.720              1.594              1.209
 Vibration    13          0.742              1.533              1.078
 Vibration    14          0.747              1.522              1.056
 Vibration    15          0.776              1.445              0.920
 Vibration    16          0.785              1.420              0.882
 Vibration    17          0.791              1.405              0.859
 Vibration    18          0.803              1.377              0.818
 Vibration    19          0.808              1.363              0.799
 Vibration    20          0.831              1.306              0.724
 Vibration    21          0.848              1.268              0.679
 Vibration    22          0.914              1.120              0.526
 Vibration    23          0.937              1.074              0.485
 Vibration    24          0.977              0.996              0.421

 Normal termination of Gaussian 16 at Fri Feb 23 21:54:12 2024.
