 Gaussian 16, Revision A.03,
 Gaussian 16:  EM64M-G16RevA.03 25-Dec-2016

 ---------------------
 # freq b3lyp/6-31g(d)
 ---------------------

 ---------
 good luck
 ---------
 Symbolic Z-matrix:
 Charge =  0 Multiplicity = 1

                         Standard orientation:
 ---------------------------------------------------------------------
 Center     Atomic      Atomic             Coordinates (Angstroms)
 Number     Number       Type             X           Y           Z
 ---------------------------------------------------------------------
      1          8           0        3.453110   -0.774332    0.664109
      2          6           0        2.380030   -0.458204    0.183889
      3          6           0        1.790686    0.939438    0.374070
      4          6           0        2.089552    1.810187   -0.865451
      5          6           0        0.281062    0.874135    0.714355
      6          6           0       -0.543921   -0.011211   -0.246733
      7          6           0       -2.090902    0.027044    0.020630
      8          6           0       -2.607439    1.476830   -0.111939
      9          6           0       -2.461473   -0.505252    1.420306
     10          6           0       -2.824184   -0.821979   -1.041496
     11          6           0        0.065656   -1.429725   -0.243912
     12          6           0        1.551755   -1.419584   -0.656060
     13          1           0        2.327245    1.379112    1.222747
     14          1           0        3.167328    1.855676   -1.054858
     15          1           0        1.730868    2.832731   -0.699890
     16          1           0        1.603706    1.430936   -1.770909
     17          1           0        0.177162    0.482423    1.735175
     18          1           0       -0.106382    1.898745    0.734979
     19          1           0       -0.417868    0.390673   -1.264861
     20          1           0       -2.323971    1.914167   -1.077791
     21          1           0       -3.701833    1.497233   -0.047794
     22          1           0       -2.225365    2.130304    0.678917
     23          1           0       -2.148534   -1.546126    1.559448
     24          1           0       -2.010845    0.092641    2.220187
     25          1           0       -3.548583   -0.470411    1.561021
     26          1           0       -2.547082   -0.515250   -2.058202
     27          1           0       -3.909224   -0.698831   -0.942950
     28          1           0       -2.610449   -1.891026   -0.941762
     29          1           0       -0.019881   -1.867059    0.760087
     30          1           0       -0.477513   -2.095682   -0.921579
     31          1           0        2.002305   -2.414055   -0.583725
     32          1           0        1.629106   -1.101628   -1.707074
 ---------------------------------------------------------------------

 SCF Done:  E(RB3LYP) =  -506.452055937     A.U. after   14 cycles

 The electronic state is 1-A.
 Alpha  occ. eigenvalues --  -19.12982 -10.26393 -10.20200 -10.19380 -10.19300
 Alpha  occ. eigenvalues --  -10.18924 -10.18842 -10.18662 -10.18585 -10.17511
 Alpha  occ. eigenvalues --  -10.17503 -10.17482  -1.02852  -0.84528  -0.80445
 Alpha  occ. eigenvalues --   -0.76788  -0.72214  -0.68739  -0.68621  -0.67005
 Alpha  occ. eigenvalues --   -0.61297  -0.60078  -0.53720  -0.51603  -0.47651
 Alpha  occ. eigenvalues --   -0.45984  -0.45043  -0.44366  -0.43778  -0.43546
 Alpha  occ. eigenvalues --   -0.42128  -0.41497  -0.40598  -0.39877  -0.37728
 Alpha  occ. eigenvalues --   -0.37570  -0.37290  -0.36825  -0.35984  -0.34778
 Alpha  occ. eigenvalues --   -0.34487  -0.33869  -0.33042  -0.31204  -0.30406
 Alpha  occ. eigenvalues --   -0.30178  -0.23055
 Alpha virt. eigenvalues --   -0.01040   0.07035   0.08943   0.10121   0.11530
 Alpha virt. eigenvalues --    0.11759   0.12597   0.13970   0.14647   0.15266
 Alpha virt. eigenvalues --    0.15477   0.16166   0.16820   0.17294   0.17987

 Mulliken charges:
               1
     1  O   -0.453417
     2  C    0.452782
     3  C   -0.154909
     4  C   -0.464074
     5  C   -0.293584
     6  C   -0.074586
     7  C    0.103305
     8  C   -0.452145
     9  C   -0.456616
    10  C   -0.452623
    11  C   -0.287655
    12  C   -0.353685
    13  H    0.148877
    14  H    0.164163
    15  H    0.152799
    16  H    0.148644
    17  H    0.141296
    18  H    0.138611
    19  H    0.114382
    20  H    0.137382
    21  H    0.140005
    22  H    0.144603
    23  H    0.143872
    24  H    0.144363
    25  H    0.140680
    26  H    0.137101
    27  H    0.140185
    28  H    0.144540
    29  H    0.143453
    30  H    0.143888
    31  H    0.162187
    32  H    0.156176
 Sum of Mulliken charges =  -0.00000

 Dipole moment (field-independent basis, Debye):
    X=             -2.7817    Y=              0.8614    Z=             -1.1159  Tot=              3.1185
 Quadrupole moment (field-independent basis, Debye-Ang):
   XX=            -89.3899   YY=            -75.2858   ZZ=            -75.9954
   XY=              4.1683   XZ=             -4.4059   YZ=              1.2251

  Exact polarizability: 131.330  -1.074 110.239   2.328   0.493  99.631
 Approx polarizability: 170.470  -4.733 155.796   7.902  -1.487 153.903

                      1                      2                      3
                      A                      A                      A
 Frequencies --     34.0210                57.3026               115.5000
 Red. masses --      2.5657                 5.3585                 2.6433
 Frc consts  --      0.0017                 0.0104                 0.0208
 IR Inten    --      0.1332                 3.2603                 0.2979

                      4                      5                      6
                      A                      A                      A
 Frequencies --    158.4867               180.7847               221.2571
 Red. masses --      2.5618                 2.0132                 1.0765
 Frc consts  --      0.0379                 0.0388                 0.0310
 IR Inten    --      0.9832                 0.0873                 0.1220

                      7                      8                      9
                      A                      A                      A
 Frequencies --    231.0320               248.6578               256.5588
 Red. masses --      1.6592                 1.4494                 1.4153
 Frc consts  --      0.0522                 0.0528                 0.0549
 IR Inten    --      0.1754                 0.1486                 0.0173

                     10                     11                     12
                      A                      A                      A
 Frequencies --    264.8313               281.3308               325.6842
 Red. masses --      1.2225                 2.2084                 2.6349
 Frc consts  --      0.0505                 0.1030                 0.1647
 IR Inten    --      0.0825                 0.3631                 0.4850

                     13                     14                     15
                      A                      A                      A
 Frequencies --    332.2892               344.4989               391.1313
 Red. masses --      2.3669                 1.8718                 2.0437
 Frc consts  --      0.1540                 0.1309                 0.1842
 IR Inten    --      0.3112                 0.0898                 0.1685

                     16                     17                     18
                      A                      A                      A
 Frequencies --    417.1000               443.1083               466.4531
 Red. masses --      3.3605                 2.6026                 2.5463
 Frc consts  --      0.3445                 0.3011                 0.3264
 IR Inten    --      5.7720                 0.3563                 1.1963

                     19                     20                     21
                      A                      A                      A
 Frequencies --    506.1286               527.8833               595.4731
 Red. masses --      2.4311                 2.6446                 3.0195
 Frc consts  --      0.3669                 0.4342                 0.6308
 IR Inten    --      4.2788                 1.6394                 0.1280

                     22                     23                     24
                      A                      A                      A
 Frequencies --    693.3909               717.0457               783.4257
 Red. masses --      3.7108                 3.3418                 2.4382
 Frc consts  --      1.0512                 1.0123                 0.8817
 IR Inten    --      0.4873                 1.7817                 1.7291

                     25                     26                     27
                      A                      A                      A
 Frequencies --    821.2084               879.1536               893.5814
 Red. masses --      1.8488                 2.2612                 2.1334
 Frc consts  --      0.7346                 1.0297                 1.0037
 IR Inten    --      3.2172                 1.8959                 9.3172

                     28                     29                     30
                      A                      A                      A
 Frequencies --    919.3179               940.7264               940.9456
 Red. masses --      2.0081                 1.7629                 1.7365
 Frc consts  --      0.9999                 0.9192                 0.9058
 IR Inten    --      2.5980                 0.5097                 0.5998

                     31                     32                     33
                      A                      A                      A
 Frequencies --    963.8308               969.4469               980.1871
 Red. masses --      1.6240                 1.2242                 2.1779
 Frc consts  --      0.8889                 0.6779                 1.2328
 IR Inten    --      0.7574                 0.4440                11.6380

                     34                     35                     36
                      A                      A                      A
 Frequencies --   1022.0985              1044.9236              1047.4104
 Red. masses --      1.6989                 1.5561                 1.5857
 Frc consts  --      1.0457                 1.0010                 1.0250
 IR Inten    --      4.9390                 0.6322                 0.4842

                     37                     38                     39
                      A                      A                      A
 Frequencies --   1059.9424              1070.1741              1129.5359
 Red. masses --      1.7625                 1.5455                 2.2298
 Frc consts  --      1.1667                 1.0429                 1.6761
 IR Inten    --      1.8996                 3.0441                 0.5562

                     40                     41                     42
                      A                      A                      A
 Frequencies --   1139.5332              1176.4882              1193.8188
 Red. masses --      2.1328                 1.3684                 1.8235
 Frc consts  --      1.6317                 1.1160                 1.5312
 IR Inten    --      1.6027                11.7291                 9.1812

                     43                     44                     45
                      A                      A                      A
 Frequencies --   1232.6613              1253.1087              1268.6864
 Red. masses --      2.0655                 2.4165                 2.2510
 Frc consts  --      1.8491                 2.2357                 2.1346
 IR Inten    --      2.2076                12.8124                23.7922

                     46                     47                     48
                      A                      A                      A
 Frequencies --   1284.2242              1296.3159              1314.3402
 Red. masses --      1.5903                 1.4212                 1.6164
 Frc consts  --      1.5453                 1.4071                 1.6452
 IR Inten    --      8.7796                 1.4119                 3.1250

                     49                     50                     51
                      A                      A                      A
 Frequencies --   1345.1537              1361.6348              1371.3380
 Red. masses --      1.3689                 1.3940                 1.4377
 Frc consts  --      1.4594                 1.5228                 1.5929
 IR Inten    --      0.5646                 1.4183                11.5545

                     52                     53                     54
                      A                      A                      A
 Frequencies --   1373.0435              1398.7287              1417.5900
 Red. masses --      1.3481                 1.4210                 1.4224
 Frc consts  --      1.4974                 1.6380                 1.6841
 IR Inten    --      0.2985                 0.8288                 0.7237

                     55                     56                     57
                      A                      A                      A
 Frequencies --   1429.5916              1430.4906              1434.6022
 Red. masses --      1.2256                 1.2306                 1.2339
 Frc consts  --      1.4758                 1.4836                 1.4962
 IR Inten    --      4.2069                 6.1739                 6.2595

                     58                     59                     60
                      A                      A                      A
 Frequencies --   1461.2533              1495.6494              1512.0518
 Red. masses --      1.2220                 1.0882                 1.0572
 Frc consts  --      1.5374                 1.4343                 1.4241
 IR Inten    --      6.2065                 8.9546                 0.6335

                     61                     62                     63
                      A                      A                      A
 Frequencies --   1516.4107              1518.1428              1522.9022
 Red. masses --      1.0716                 1.0447                 1.0494
 Frc consts  --      1.4518                 1.4186                 1.4339
 IR Inten    --      0.3440                 0.9670                 0.4222

                     64                     65                     66
                      A                      A                      A
 Frequencies --   1527.9346              1531.2637              1534.6951
 Red. masses --      1.0535                 1.0770                 1.0589
 Frc consts  --      1.4491                 1.4879                 1.4694
 IR Inten    --      5.7812                 2.7796                 7.3166

                     67                     68                     69
                      A                      A                      A
 Frequencies --   1539.7913              1542.6069              1551.8473
 Red. masses --      1.0502                 1.0604                 1.0561
 Frc consts  --      1.4671                 1.4868                 1.4985
 IR Inten    --      2.9733                 1.7419                14.4297

                     70                     71                     72
                      A                      A                      A
 Frequencies --   1811.4686              2996.2878              3023.7860
 Red. masses --     11.0979                 1.0814                 1.0692
 Frc consts  --     21.4561                 5.7198                 5.7599
 IR Inten    --    194.2344                13.9755                 8.2445

                     73                     74                     75
                      A                      A                      A
 Frequencies --   3037.9242              3039.8522              3041.7440
 Red. masses --      1.0484                 1.0518                 1.0399
 Frc consts  --      5.7010                 5.7263                 5.6687
 IR Inten    --      4.4911                20.0164                19.0357

                     76                     77                     78
                      A                      A                      A
 Frequencies --   3045.5347              3051.2951              3052.1685
 Red. masses --      1.0534                 1.0359                 1.0460
 Frc consts  --      5.7567                 5.6825                 5.7409
 IR Inten    --     27.9041                29.1750                36.5025

                     79                     80                     81
                      A                      A                      A
 Frequencies --   3068.5968              3088.2013              3099.2423
 Red. masses --      1.0845                 1.0996                 1.1011
 Frc consts  --      6.0166                 6.1788                 6.2316
 IR Inten    --     18.4623                31.5457                 7.0705

                     82                     83                     84
                      A                      A                      A
 Frequencies --   3099.9824              3105.0291              3109.6083
 Red. masses --      1.0995                 1.1011                 1.1002
 Frc consts  --      6.2253                 6.2548                 6.2682
 IR Inten    --     13.9504                45.4640                73.7526

                     85                     86                     87
                      A                      A                      A
 Frequencies --   3113.5572              3117.2929              3117.8174
 Red. masses --      1.0943                 1.1019                 1.1018
 Frc consts  --      6.2504                 6.3089                 6.3106
 IR Inten    --     26.1504                11.4774                 6.0145

                     88                     89                     90
                      A                      A                      A
 Frequencies --   3121.5923              3122.3764              3126.2169
 Red. masses --      1.0992                 1.0987                 1.1024
 Frc consts  --      6.3108                 6.3108                 6.3480
 IR Inten    --     77.5588                33.7287                31.6332

 - Thermochemistry -
 -------------------
 Temperature   298.150 Kelvin.  Pressure   1.00000 Atm.
 Atom     1 has atomic number  8 and mass  15.99491

 Molecular mass:   168.15142 amu.
 Principal axes and moments of inertia in atomic units:
                           1         2         3
     Eigenvalues --  1110.777093175.940003559.13032
           X            0.99981   0.01583  -0.01137
           Y           -0.01579   0.99987   0.00431
           Z            0.01144  -0.00413   0.99993
 This molecule is an asymmetric top.
 Rotational symmetry number  1.
 Warning -- assumption of classical behavior for rotation
           may cause significant error
 Rotational temperatures (Kelvin)      0.07798     0.02727     0.02434
 Rotational constants (GHZ):           1.62476     0.56825     0.50707
 Zero-point vibrational energy     769446.0 (Joules/Mol)
                                  183.90202 (Kcal/Mol)
 Warning -- explicit consideration of  21 degrees of freedom as
           vibrations may cause significant error
 Vibrational temperatures:     48.95    82.45   166.18   228.03   260.11
          (Kelvin)            318.34   332.40   357.76   369.13   381.03
                              404.77   468.59   478.09   495.66   562.75
                              600.11   637.53   671.12   728.21   759.51
                              856.75   997.63  1031.67  1127.17  1181.54
                             1264.91  1285.66  1322.69  1353.50  1353.81
                             1386.74  1394.82  1410.27  1470.57  1503.41
                             1506.99  1525.02  1539.74  1625.15  1639.53
                             1692.70  1717.64  1773.52  1802.94  1825.36
                             1847.71  1865.11  1891.04  1935.38  1959.09
                             1973.05  1975.50  2012.46  2039.60  2056.86
                             2058.16  2064.07  2102.42  2151.91  2175.51
                             2181.78  2184.27  2191.12  2198.36  2203.15
                             2208.08  2215.42  2219.47  2232.76  2606.30
                             4310.99  4350.55  4370.90  4373.67  4376.39
                             4381.85  4390.13  4391.39  4415.03  4443.23
                             4459.12  4460.18  4467.44  4474.03  4479.71
                             4485.09  4485.84  4491.28  4492.40  4497.93

 Zero-point correction=                           0.293067 (Hartree/Particle)
 Thermal correction to Energy=                    0.306474
 Thermal correction to Enthalpy=                  0.307418
 Thermal correction to Gibbs Free Energy=         0.253874
 Sum of electronic and zero-point Energies=           -506.158989
 Sum of electronic and thermal Energies=              -506.145582
 Sum of electronic and thermal Enthalpies=            -506.144638
 Sum of electronic and thermal Free Energies=         -506.198182

                     E (Thermal)             CV                S
                      KCal/Mol        Cal/Mol-Kelvin    Cal/Mol-Kelvin
 Total                  192.315             52.031            112.693
 Electronic               0.000              0.000              0.000
 Translational            0.889              2.981             41.267
 Rotational               0.889              2.981             30.908
 Vibrational            190.538             46.069             40.519
 Vibration     1          0.594              1.983              5.580
 Vibration     2          0.596              1.975              4.548
 Vibration     3          0.608              1.937              3.174
 Vibration     4          0.621              1.893              2.568
 Vibration     5          0.630              1.866              2.320
 Vibration     6          0.648              1.809              1.949
 Vibration     7          0.653              1.794              1.871
 Vibration     8          0.662              1.765              1.740
 Vibration     9          0.666              1.752              1.685
 Vibration    10          0.671              1.737              1.630
 Vibration    11          0.681              1.708              1.526
 Vibration    12          0.710              1.624              1.281
 Vibration    13          0.714              1.611              1.249
 Vibration    14          0.723              1.586              1.191
 Vibration    15          0.759              1.489              0.996
 Vibration    16          0.780              1.433              0.902
 Vibration    17          0.803              1.376              0.817
 Vibration    18          0.824              1.324              0.748
 Vibration    19          0.861              1.236              0.643
 Vibration    20          0.883              1.188              0.592
 Vibration    21          0.953              1.041              0.458

 Normal termination of Gaussian 16 at Sat Feb 24 04:35:44 2024.
