 Gaussian 16, Revision A.03,
 Gaussian 16:  EM64M-G16RevA.03 25-Dec-2016

 ---------------------
 # freq b3lyp/6-31g(d)
 ---------------------

 ---------
 good luck
 ---------
 Symbolic Z-matrix:
 Charge =  0 Multiplicity = 1

                         Standard orientation:
 ---------------------------------------------------------------------
 Center     Atomic      Atomic             Coordinates (Angstroms)
 Number     Number       Type             X           Y           Z
 ---------------------------------------------------------------------
      1          8           0        3.486967   -0.654509    0.155142
      2          6           0        2.278220   -0.558111    0.055291
      3          6           0        1.529830    0.762969    0.237905
      4          6           0        2.461210    1.970500    0.115420
      5          6           0        0.331073    0.821364   -0.734924
      6          6           0       -0.706255   -0.335973   -0.573849
      7          6           0       -2.073325    0.112897    0.050841
      8          6           0       -1.893371    0.800640    1.419658
      9          6           0       -2.996777   -1.111520    0.228515
     10          6           0       -2.779529    1.090780   -0.913135
     11          6           0       -0.063699   -1.547647    0.147360
     12          6           0        1.396615   -1.758416   -0.273066
     13          1           0        1.131410    0.733338    1.265890
     14          1           0        3.326045    1.861414    0.774577
     15          1           0        1.934098    2.895862    0.372983
     16          1           0        2.839375    2.068081   -0.909006
     17          1           0        0.730881    0.811132   -1.757798
     18          1           0       -0.153417    1.796695   -0.625037
     19          1           0       -0.954034   -0.681616   -1.588240
     20          1           0       -1.415721    0.139832    2.152278
     21          1           0       -2.868842    1.087831    1.830363
     22          1           0       -1.291487    1.713479    1.345170
     23          1           0       -3.995478   -0.791950    0.549421
     24          1           0       -2.619117   -1.809036    0.983379
     25          1           0       -3.112513   -1.662857   -0.713374
     26          1           0       -3.750773    1.396848   -0.506146
     27          1           0       -2.197610    2.002472   -1.086161
     28          1           0       -2.960504    0.620367   -1.887692
     29          1           0       -0.100522   -1.411951    1.236335
     30          1           0       -0.636867   -2.456016   -0.063477
     31          1           0        1.839676   -2.648293    0.186996
     32          1           0        1.455713   -1.914468   -1.361700
 ---------------------------------------------------------------------

 SCF Done:  E(RB3LYP) =  -506.450150110     A.U. after   13 cycles

 The electronic state is 1-A.
 Alpha  occ. eigenvalues --  -19.12989 -10.26493 -10.20154 -10.19436 -10.19350
 Alpha  occ. eigenvalues --  -10.18929 -10.18857 -10.18733 -10.17665 -10.17519
 Alpha  occ. eigenvalues --  -10.17494 -10.17250  -1.02956  -0.84497  -0.80367
 Alpha  occ. eigenvalues --   -0.76879  -0.71699  -0.68870  -0.68708  -0.66811
 Alpha  occ. eigenvalues --   -0.61541  -0.59684  -0.53351  -0.50497  -0.49066
 Alpha  occ. eigenvalues --   -0.47049  -0.45395  -0.44672  -0.43738  -0.43311
 Alpha  occ. eigenvalues --   -0.41193  -0.40815  -0.39227  -0.38453  -0.38165
 Alpha  occ. eigenvalues --   -0.37634  -0.37466  -0.36597  -0.36104  -0.35354
 Alpha  occ. eigenvalues --   -0.35078  -0.33891  -0.32759  -0.30755  -0.30337
 Alpha  occ. eigenvalues --   -0.30103  -0.23262
 Alpha virt. eigenvalues --   -0.00843   0.06420   0.09294   0.09812   0.10912
 Alpha virt. eigenvalues --    0.12138   0.12778   0.13967   0.14479   0.14968
 Alpha virt. eigenvalues --    0.15649   0.16677   0.17042   0.17812   0.18420

 Mulliken charges:
               1
     1  O   -0.460370
     2  C    0.462424
     3  C   -0.179106
     4  C   -0.442945
     5  C   -0.301012
     6  C   -0.060452
     7  C    0.091636
     8  C   -0.454548
     9  C   -0.451403
    10  C   -0.450879
    11  C   -0.295581
    12  C   -0.358250
    13  H    0.156799
    14  H    0.168491
    15  H    0.135966
    16  H    0.147652
    17  H    0.138057
    18  H    0.145433
    19  H    0.117406
    20  H    0.140993
    21  H    0.142296
    22  H    0.143409
    23  H    0.139727
    24  H    0.144982
    25  H    0.137946
    26  H    0.140347
    27  H    0.143785
    28  H    0.138736
    29  H    0.140062
    30  H    0.145656
    31  H    0.167141
    32  H    0.165603
 Sum of Mulliken charges =  -0.00000

 Dipole moment (field-independent basis, Debye):
    X=             -3.0296    Y=              0.1941    Z=             -0.2495  Tot=              3.0460
 Quadrupole moment (field-independent basis, Debye-Ang):
   XX=            -90.8928   YY=            -74.8934   ZZ=            -74.8479
   XY=              2.2954   XZ=             -1.0280   YZ=              0.6157

  Exact polarizability: 131.979   0.268 111.478   0.670   0.977  96.463
 Approx polarizability: 172.388  -2.601 154.375   1.207   1.962 149.839

                      1                      2                      3
                      A                      A                      A
 Frequencies --     37.7920                70.7548               101.3060
 Red. masses --      4.6965                 2.8979                 2.7280
 Frc consts  --      0.0040                 0.0085                 0.0165
 IR Inten    --      3.1192                 0.4009                 0.8597

                      4                      5                      6
                      A                      A                      A
 Frequencies --    181.3537               201.0855               224.5899
 Red. masses --      1.8043                 1.1614                 1.4718
 Frc consts  --      0.0350                 0.0277                 0.0437
 IR Inten    --      0.5098                 0.0847                 0.1054

                      7                      8                      9
                      A                      A                      A
 Frequencies --    231.2097               257.5312               275.6142
 Red. masses --      1.5208                 1.3074                 1.8946
 Frc consts  --      0.0479                 0.0511                 0.0848
 IR Inten    --      0.4534                 0.0453                 0.1461

                     10                     11                     12
                      A                      A                      A
 Frequencies --    281.5825               289.7897               313.8546
 Red. masses --      1.6616                 2.4518                 1.9105
 Frc consts  --      0.0776                 0.1213                 0.1109
 IR Inten    --      0.0091                 2.5471                 0.2716

                     13                     14                     15
                      A                      A                      A
 Frequencies --    320.8418               341.0959               381.4066
 Red. masses --      1.8257                 2.6786                 2.4332
 Frc consts  --      0.1107                 0.1836                 0.2086
 IR Inten    --      0.1141                 3.9750                 0.8056

                     16                     17                     18
                      A                      A                      A
 Frequencies --    399.6032               455.1499               463.3841
 Red. masses --      2.4778                 2.6565                 2.6838
 Frc consts  --      0.2331                 0.3242                 0.3395
 IR Inten    --      1.4611                 0.0808                 1.8382

                     19                     20                     21
                      A                      A                      A
 Frequencies --    527.8976               537.4321               593.1046
 Red. masses --      2.4830                 2.9657                 2.8105
 Frc consts  --      0.4077                 0.5047                 0.5825
 IR Inten    --      4.5496                 3.2341                 1.3592

                     22                     23                     24
                      A                      A                      A
 Frequencies --    623.8884               707.0273               744.9045
 Red. masses --      2.7070                 3.2361                 3.1084
 Frc consts  --      0.6208                 0.9531                 1.0162
 IR Inten    --      1.3029                 2.2127                 0.5215

                     25                     26                     27
                      A                      A                      A
 Frequencies --    828.8171               856.6285               895.7902
 Red. masses --      2.4716                 1.7295                 1.9088
 Frc consts  --      1.0003                 0.7477                 0.9024
 IR Inten    --      0.5951                 2.3880                 4.6297

                     28                     29                     30
                      A                      A                      A
 Frequencies --    913.8134               939.4875               942.2195
 Red. masses --      2.0631                 1.8001                 1.7671
 Frc consts  --      1.0150                 0.9361                 0.9243
 IR Inten    --      2.0804                 0.9228                 0.5263

                     31                     32                     33
                      A                      A                      A
 Frequencies --    969.2930               970.7857              1005.4996
 Red. masses --      1.5869                 1.2009                 1.7665
 Frc consts  --      0.8784                 0.6668                 1.0523
 IR Inten    --      5.4664                 0.0256                 0.3779

                     34                     35                     36
                      A                      A                      A
 Frequencies --   1023.1551              1040.3569              1051.1877
 Red. masses --      1.8136                 1.3395                 1.5435
 Frc consts  --      1.1186                 0.8542                 1.0049
 IR Inten    --      7.2095                 0.1698                 1.2199

                     37                     38                     39
                      A                      A                      A
 Frequencies --   1087.7430              1103.6479              1121.5933
 Red. masses --      2.0276                 1.8031                 2.7316
 Frc consts  --      1.4135                 1.2940                 2.0246
 IR Inten    --      5.9141                 0.9215                12.4043

                     40                     41                     42
                      A                      A                      A
 Frequencies --   1135.0514              1175.3621              1188.6274
 Red. masses --      1.7628                 2.0156                 1.6669
 Frc consts  --      1.3381                 1.6406                 1.3876
 IR Inten    --      3.3266                28.0522                 6.6870

                     43                     44                     45
                      A                      A                      A
 Frequencies --   1216.7007              1248.6178              1255.7393
 Red. masses --      1.7479                 1.7197                 2.2404
 Frc consts  --      1.5245                 1.5796                 2.0815
 IR Inten    --      2.4767                 8.9880                10.3321

                     46                     47                     48
                      A                      A                      A
 Frequencies --   1264.9431              1290.3959              1316.1167
 Red. masses --      1.7591                 1.9936                 1.2907
 Frc consts  --      1.6584                 1.9559                 1.3172
 IR Inten    --      9.6763                 1.5861                 0.5543

                     49                     50                     51
                      A                      A                      A
 Frequencies --   1351.8781              1356.6513              1373.5053
 Red. masses --      1.4237                 1.3882                 1.2855
 Frc consts  --      1.5330                 1.5054                 1.4289
 IR Inten    --      0.3387                 0.1634                 2.0808

                     52                     53                     54
                      A                      A                      A
 Frequencies --   1376.2774              1390.2734              1408.1416
 Red. masses --      1.5148                 1.5381                 1.4832
 Frc consts  --      1.6905                 1.7515                 1.7328
 IR Inten    --      7.6196                 4.4211                 1.7846

                     55                     56                     57
                      A                      A                      A
 Frequencies --   1429.1128              1431.3344              1436.9336
 Red. masses --      1.2372                 1.2352                 1.2291
 Frc consts  --      1.4888                 1.4910                 1.4953
 IR Inten    --      4.9213                 6.9274                 4.2945

                     58                     59                     60
                      A                      A                      A
 Frequencies --   1460.8579              1481.9991              1513.2598
 Red. masses --      1.2222                 1.0825                 1.0535
 Frc consts  --      1.5367                 1.4008                 1.4214
 IR Inten    --      8.0863                 8.8629                 0.7144

                     61                     62                     63
                      A                      A                      A
 Frequencies --   1517.2260              1517.3542              1521.3283
 Red. masses --      1.0484                 1.0494                 1.0472
 Frc consts  --      1.4220                 1.4235                 1.4280
 IR Inten    --      0.3679                 0.5149                 4.6072

                     64                     65                     66
                      A                      A                      A
 Frequencies --   1525.3046              1530.7784              1532.8930
 Red. masses --      1.0552                 1.0593                 1.0805
 Frc consts  --      1.4464                 1.4625                 1.4959
 IR Inten    --      5.8577                 1.3980                 2.1866

                     67                     68                     69
                      A                      A                      A
 Frequencies --   1541.5245              1544.5905              1549.7752
 Red. masses --      1.0561                 1.0617                 1.0574
 Frc consts  --      1.4786                 1.4924                 1.4963
 IR Inten    --      4.2458                 7.8572                12.3594

                     70                     71                     72
                      A                      A                      A
 Frequencies --   1812.1871              2995.0493              3005.9917
 Red. masses --     12.1257                 1.0802                 1.0835
 Frc consts  --     23.4619                 5.7093                 5.7683
 IR Inten    --    184.3233                 7.1491                16.2516

                     73                     74                     75
                      A                      A                      A
 Frequencies --   3021.2574              3038.3502              3040.6594
 Red. masses --      1.0704                 1.0368                 1.0372
 Frc consts  --      5.7565                 5.6391                 5.6500
 IR Inten    --      6.5413                17.2019                28.3258

                     76                     77                     78
                      A                      A                      A
 Frequencies --   3042.2954              3047.6948              3050.4210
 Red. masses --      1.0631                 1.0578                 1.0479
 Frc consts  --      5.7974                 5.7892                 5.7448
 IR Inten    --     10.5696                45.6095                20.9647

                     79                     80                     81
                      A                      A                      A
 Frequencies --   3055.0728              3093.8534              3097.2709
 Red. masses --      1.0388                 1.0951                 1.1000
 Frc consts  --      5.7125                 6.1758                 6.2173
 IR Inten    --     36.2329                20.7701                18.6625

                     82                     83                     84
                      A                      A                      A
 Frequencies --   3099.8896              3100.8546              3104.1027
 Red. masses --      1.1017                 1.0917                 1.1015
 Frc consts  --      6.2374                 6.1849                 6.2535
 IR Inten    --      3.6027                17.1462                27.5428

                     85                     86                     87
                      A                      A                      A
 Frequencies --   3108.1427              3112.0987              3115.6426
 Red. masses --      1.1005                 1.1020                 1.1024
 Frc consts  --      6.2638                 6.2886                 6.3048
 IR Inten    --     83.2002                 9.0709                37.4097

                     88                     89                     90
                      A                      A                      A
 Frequencies --   3118.1127              3119.8132              3146.8043
 Red. masses --      1.0991                 1.0999                 1.1002
 Frc consts  --      6.2959                 6.3073                 6.4192
 IR Inten    --     59.3887                43.2259                15.1800

 - Thermochemistry -
 -------------------
 Temperature   298.150 Kelvin.  Pressure   1.00000 Atm.
 Atom     1 has atomic number  8 and mass  15.99491

 Molecular mass:   168.15142 amu.
 Principal axes and moments of inertia in atomic units:
                           1         2         3
     Eigenvalues --  1109.090583085.682893644.24471
           X            0.99986   0.01665  -0.00275
           Y           -0.01664   0.99986   0.00076
           Z            0.00276  -0.00072   1.00000
 This molecule is an asymmetric top.
 Rotational symmetry number  1.
 Warning -- assumption of classical behavior for rotation
           may cause significant error
 Rotational temperatures (Kelvin)      0.07809     0.02807     0.02377
 Rotational constants (GHZ):           1.62723     0.58488     0.49523
 Zero-point vibrational energy     768722.3 (Joules/Mol)
                                  183.72905 (Kcal/Mol)
 Warning -- explicit consideration of  21 degrees of freedom as
           vibrations may cause significant error
 Vibrational temperatures:     54.37   101.80   145.76   260.93   289.32
          (Kelvin)            323.13   332.66   370.53   396.55   405.13
                              416.94   451.57   461.62   490.76   548.76
                              574.94   654.86   666.71   759.53   773.24
                              853.35   897.64  1017.25  1071.75  1192.48
                             1232.50  1288.84  1314.77  1351.71  1355.64
                             1394.60  1396.74  1446.69  1472.09  1496.84
                             1512.42  1565.02  1587.90  1613.72  1633.09
                             1691.08  1710.17  1750.56  1796.48  1806.73
                             1819.97  1856.59  1893.60  1945.05  1951.92
                             1976.17  1980.16  2000.29  2026.00  2056.17
                             2059.37  2067.43  2101.85  2132.27  2177.24
                             2182.95  2183.13  2188.85  2194.57  2202.45
                             2205.49  2217.91  2222.32  2229.78  2607.33
                             4309.21  4324.95  4346.92  4371.51  4374.83
                             4377.18  4384.95  4388.88  4395.57  4451.36
                             4456.28  4460.05  4461.44  4466.11  4471.92
                             4477.62  4482.71  4486.27  4488.72  4527.55

 Zero-point correction=                           0.292791 (Hartree/Particle)
 Thermal correction to Energy=                    0.306118
 Thermal correction to Enthalpy=                  0.307062
 Thermal correction to Gibbs Free Energy=         0.253956
 Sum of electronic and zero-point Energies=           -506.157359
 Sum of electronic and thermal Energies=              -506.144033
 Sum of electronic and thermal Enthalpies=            -506.143088
 Sum of electronic and thermal Free Energies=         -506.196194

                     E (Thermal)             CV                S
                      KCal/Mol        Cal/Mol-Kelvin    Cal/Mol-Kelvin
 Total                  192.092             52.120            111.771
 Electronic               0.000              0.000              0.000
 Translational            0.889              2.981             41.267
 Rotational               0.889              2.981             30.901
 Vibrational            190.314             46.158             39.603
 Vibration     1          0.594              1.982              5.372
 Vibration     2          0.598              1.968              4.132
 Vibration     3          0.604              1.948              3.429
 Vibration     4          0.630              1.865              2.314
 Vibration     5          0.638              1.838              2.123
 Vibration     6          0.649              1.804              1.922
 Vibration     7          0.653              1.793              1.870
 Vibration     8          0.667              1.750              1.678
 Vibration     9          0.677              1.718              1.561
 Vibration    10          0.681              1.708              1.524
 Vibration    11          0.686              1.693              1.475
 Vibration    12          0.702              1.647              1.342
 Vibration    13          0.706              1.634              1.306
 Vibration    14          0.721              1.593              1.207
 Vibration    15          0.751              1.510              1.034
 Vibration    16          0.766              1.471              0.964
 Vibration    17          0.813              1.350              0.780
 Vibration    18          0.821              1.331              0.756
 Vibration    19          0.883              1.188              0.592
 Vibration    20          0.892              1.167              0.571
 Vibration    21          0.951              1.046              0.462

 Normal termination of Gaussian 16 at Sat Feb 24 04:39:13 2024.
