 Gaussian 16, Revision A.03,
 Gaussian 16:  EM64M-G16RevA.03 25-Dec-2016

 ---------------------
 # freq b3lyp/6-31g(d)
 ---------------------

 ---------
 good luck
 ---------
 Symbolic Z-matrix:
 Charge =  0 Multiplicity = 1

                         Standard orientation:
 ---------------------------------------------------------------------
 Center     Atomic      Atomic             Coordinates (Angstroms)
 Number     Number       Type             X           Y           Z
 ---------------------------------------------------------------------
      1          8           0        2.330517    1.822707   -0.171606
      2          6           0        1.461321    1.000267    0.016245
      3          6           0        1.688965   -0.404534    0.608744
      4          6           0        3.013270   -1.027003    0.157312
      5          6           0        0.414420   -1.157865    0.264273
      6          6           0       -0.010656   -1.189414   -1.186713
      7          6           0       -0.651229   -0.192929   -0.245471
      8          6           0       -2.120923   -0.363810    0.129576
      9          6           0       -3.049480    0.289502   -0.907507
     10          6           0       -2.430396    0.139866    1.548838
     11          6           0       -0.029055    1.199305   -0.294180
     12          1           0        1.727093   -0.259295    1.701467
     13          1           0        3.839431   -0.336788    0.353675
     14          1           0        2.999266   -1.241196   -0.917006
     15          1           0        3.206116   -1.966256    0.686577
     16          1           0        0.123507   -1.995093    0.894921
     17          1           0        0.681096   -0.830656   -1.948148
     18          1           0       -0.615121   -2.033060   -1.510914
     19          1           0       -2.320142   -1.446027    0.118042
     20          1           0       -2.915259    1.378211   -0.929534
     21          1           0       -2.849651   -0.092528   -1.915069
     22          1           0       -4.101809    0.092035   -0.671938
     23          1           0       -3.469672   -0.079771    1.819457
     24          1           0       -2.296937    1.225442    1.632397
     25          1           0       -1.780528   -0.337011    2.291666
     26          1           0       -0.140648    1.716490   -1.253984
     27          1           0       -0.448299    1.863535    0.474526
 ---------------------------------------------------------------------

 SCF Done:  E(RB3LYP) =  -465.904364612     A.U. after   14 cycles

 The electronic state is 1-A.
 Alpha  occ. eigenvalues --  -19.13806 -10.27095 -10.20054 -10.19756 -10.19658
 Alpha  occ. eigenvalues --  -10.19441 -10.19145 -10.18906 -10.17797 -10.17631
 Alpha  occ. eigenvalues --  -10.17609  -1.03752  -0.89027  -0.79426  -0.76095
 Alpha  occ. eigenvalues --   -0.73688  -0.68568  -0.65473  -0.61508  -0.58155
 Alpha  occ. eigenvalues --   -0.54348  -0.52528  -0.48990  -0.46416  -0.45046
 Alpha  occ. eigenvalues --   -0.44071  -0.43797  -0.41799  -0.41392  -0.40579
 Alpha  occ. eigenvalues --   -0.39473  -0.38650  -0.37342  -0.37008  -0.35443
 Alpha  occ. eigenvalues --   -0.34943  -0.34426  -0.33471  -0.32647  -0.28192
 Alpha  occ. eigenvalues --   -0.26783  -0.23813
 Alpha virt. eigenvalues --   -0.01683   0.07778   0.10123   0.10760   0.11391
 Alpha virt. eigenvalues --    0.12159   0.13235   0.14187   0.14638   0.15111
 Alpha virt. eigenvalues --    0.16148   0.16701   0.17587   0.18509   0.18619

 Mulliken charges:
               1
     1  O   -0.450826
     2  C    0.420751
     3  C   -0.155814
     4  C   -0.439205
     5  C   -0.149997
     6  C   -0.346063
     7  C    0.116766
     8  C   -0.099406
     9  C   -0.446536
    10  C   -0.449719
    11  C   -0.377273
    12  H    0.157565
    13  H    0.167460
    14  H    0.148065
    15  H    0.142652
    16  H    0.135956
    17  H    0.150888
    18  H    0.151010
    19  H    0.118101
    20  H    0.144280
    21  H    0.146665
    22  H    0.141870
    23  H    0.144509
    24  H    0.141765
    25  H    0.143534
    26  H    0.172577
    27  H    0.170425
 Sum of Mulliken charges =  -0.00000

 Dipole moment (field-independent basis, Debye):
    X=             -2.1308    Y=             -1.8758    Z=              0.5488  Tot=              2.8913
 Quadrupole moment (field-independent basis, Debye-Ang):
   XX=            -73.0881   YY=            -71.3054   ZZ=            -66.6214
   XY=             -5.5140   XZ=              1.0551   YZ=              0.4327

  Exact polarizability: 116.869  -0.775  94.782   1.009  -0.873  88.878
 Approx polarizability: 147.701   5.037 143.728  -0.288  -2.910 133.057

                      1                      2                      3
                      A                      A                      A
 Frequencies --     59.9805                78.3430               108.5456
 Red. masses --      3.0850                 3.3813                 2.8433
 Frc consts  --      0.0065                 0.0122                 0.0197
 IR Inten    --      0.9306                 2.4990                 0.1026

                      4                      5                      6
                      A                      A                      A
 Frequencies --    178.6376               206.7855               224.9934
 Red. masses --      2.8323                 1.0400                 1.2942
 Frc consts  --      0.0533                 0.0262                 0.0386
 IR Inten    --      0.1174                 0.2524                 0.2043

                      7                      8                      9
                      A                      A                      A
 Frequencies --    246.8564               248.9950               257.1889
 Red. masses --      1.8214                 2.3547                 1.2584
 Frc consts  --      0.0654                 0.0860                 0.0490
 IR Inten    --      1.3414                 1.9599                 0.6374

                     10                     11                     12
                      A                      A                      A
 Frequencies --    299.5599               334.3716               413.1844
 Red. masses --      2.6595                 2.1469                 2.6433
 Frc consts  --      0.1406                 0.1414                 0.2659
 IR Inten    --      1.4660                 0.0950                 2.0659

                     13                     14                     15
                      A                      A                      A
 Frequencies --    461.1728               478.3321               489.6658
 Red. masses --      3.3086                 2.9283                 2.5904
 Frc consts  --      0.4146                 0.3948                 0.3659
 IR Inten    --      3.5865                 2.6543                 0.9986

                     16                     17                     18
                      A                      A                      A
 Frequencies --    565.1576               582.7351               622.0118
 Red. masses --      3.5901                 2.9039                 3.0389
 Frc consts  --      0.6756                 0.5810                 0.6927
 IR Inten    --      1.3905                 2.3560                 0.5740

                     19                     20                     21
                      A                      A                      A
 Frequencies --    718.5456               756.2765               833.7493
 Red. masses --      2.7725                 3.1738                 1.7946
 Frc consts  --      0.8434                 1.0695                 0.7350
 IR Inten    --      4.1238                 6.3667                 4.2838

                     22                     23                     24
                      A                      A                      A
 Frequencies --    880.5987               887.3533               931.7011
 Red. masses --      2.3499                 2.3189                 1.4794
 Frc consts  --      1.0736                 1.0758                 0.7566
 IR Inten    --      2.3098                 1.1095                 1.0850

                     25                     26                     27
                      A                      A                      A
 Frequencies --    942.5796               955.9803               969.9368
 Red. masses --      1.4280                 1.5868                 1.6219
 Frc consts  --      0.7475                 0.8544                 0.8990
 IR Inten    --      2.1319                 1.3212                 0.8271

                     28                     29                     30
                      A                      A                      A
 Frequencies --    977.3828               991.2399              1035.5545
 Red. masses --      1.6035                 2.1781                 1.7903
 Frc consts  --      0.9025                 1.2609                 1.1312
 IR Inten    --      0.7763                 3.7108                21.1309

                     31                     32                     33
                      A                      A                      A
 Frequencies --   1060.8394              1077.5042              1090.3677
 Red. masses --      1.2851                 1.4046                 1.4471
 Frc consts  --      0.8521                 0.9608                 1.0137
 IR Inten    --      1.8356                 2.0710                20.5829

                     34                     35                     36
                      A                      A                      A
 Frequencies --   1110.9273              1140.8328              1152.3435
 Red. masses --      2.0707                 1.7820                 2.0639
 Frc consts  --      1.5057                 1.3665                 1.6147
 IR Inten    --      7.1195                 1.2217                 2.0552

                     37                     38                     39
                      A                      A                      A
 Frequencies --   1172.5468              1189.7636              1206.2719
 Red. masses --      2.7305                 1.7365                 1.6166
 Frc consts  --      2.2118                 1.4483                 1.3859
 IR Inten    --     38.9898                 0.7532                 9.1900

                     40                     41                     42
                      A                      A                      A
 Frequencies --   1251.1996              1279.2032              1297.4313
 Red. masses --      1.5206                 1.9145                 1.7950
 Frc consts  --      1.4026                 1.8458                 1.7803
 IR Inten    --      0.0627                20.1454                 2.7672

                     43                     44                     45
                      A                      A                      A
 Frequencies --   1338.7155              1347.5249              1363.4019
 Red. masses --      2.0706                 1.7644                 1.3672
 Frc consts  --      2.1864                 1.8876                 1.4974
 IR Inten    --      2.8271                 3.7227                 2.0502

                     46                     47                     48
                      A                      A                      A
 Frequencies --   1387.3518              1422.2313              1427.4344
 Red. masses --      1.5616                 1.7806                 1.2705
 Frc consts  --      1.7709                 2.1221                 1.5252
 IR Inten    --      4.4789                 0.9067                 4.7843

                     49                     50                     51
                      A                      A                      A
 Frequencies --   1434.4287              1447.0952              1483.9075
 Red. masses --      1.3312                 1.2344                 1.0977
 Frc consts  --      1.6139                 1.5230                 1.4241
 IR Inten    --      5.5584                 3.6116                 3.3575

                     52                     53                     54
                      A                      A                      A
 Frequencies --   1517.6569              1518.0017              1525.0057
 Red. masses --      1.0463                 1.2223                 1.0509
 Frc consts  --      1.4199                 1.6595                 1.4400
 IR Inten    --      0.5526                 1.2844                 0.4064

                     55                     56                     57
                      A                      A                      A
 Frequencies --   1526.5093              1528.5555              1534.6353
 Red. masses --      1.0725                 1.0515                 1.0448
 Frc consts  --      1.4724                 1.4475                 1.4498
 IR Inten    --     11.2302                 2.8111                 8.4536

                     58                     59                     60
                      A                      A                      A
 Frequencies --   1540.4415              1840.3377              2995.5052
 Red. masses --      1.0659                12.6331                 1.0812
 Frc consts  --      1.4902                25.2089                 5.7163
 IR Inten    --      4.3134               196.3509                15.5127

                     61                     62                     63
                      A                      A                      A
 Frequencies --   3010.0714              3040.4039              3043.3520
 Red. masses --      1.0838                 1.0365                 1.0463
 Frc consts  --      5.7857                 5.6450                 5.7096
 IR Inten    --     21.2208                24.7403                 7.1295

                     64                     65                     66
                      A                      A                      A
 Frequencies --   3048.1844              3056.5570              3093.6588
 Red. masses --      1.0516                 1.0349                 1.0980
 Frc consts  --      5.7567                 5.6964                 6.1916
 IR Inten    --     28.0556                26.9463                11.9428

                     67                     68                     69
                      A                      A                      A
 Frequencies --   3103.8245              3109.3034              3112.9115
 Red. masses --      1.1018                 1.1010                 1.1028
 Frc consts  --      6.2538                 6.2713                 6.2964
 IR Inten    --      1.3870                67.4384                22.7793

                     70                     71                     72
                      A                      A                      A
 Frequencies --   3114.9531              3122.0115              3125.5952
 Red. masses --      1.1024                 1.0982                 1.0606
 Frc consts  --      6.3020                 6.3066                 6.1048
 IR Inten    --     45.6720                17.2877                21.8193

                     73                     74                     75
                      A                      A                      A
 Frequencies --   3136.3557              3164.6704              3206.1056
 Red. masses --      1.1025                 1.0909                 1.1149
 Frc consts  --      6.3898                 6.4369                 6.7519
 IR Inten    --     16.6542                14.5556                15.0702

 - Thermochemistry -
 -------------------
 Temperature   298.150 Kelvin.  Pressure   1.00000 Atm.
 Atom     1 has atomic number  8 and mass  15.99491

 Molecular mass:   152.12012 amu.
 Principal axes and moments of inertia in atomic units:
                           1         2         3
     Eigenvalues --   901.476642465.963052702.93437
           X            0.99943  -0.03368  -0.00049
           Y            0.03368   0.99939   0.00880
           Z            0.00019  -0.00881   0.99996
 This molecule is an asymmetric top.
 Rotational symmetry number  1.
 Warning -- assumption of classical behavior for rotation
           may cause significant error
 Rotational temperatures (Kelvin)      0.09608     0.03512     0.03204
 Rotational constants (GHZ):           2.00198     0.73186     0.66770
 Zero-point vibrational energy     630631.4 (Joules/Mol)
                                  150.72453 (Kcal/Mol)
 Warning -- explicit consideration of  17 degrees of freedom as
           vibrations may cause significant error
 Vibrational temperatures:     86.30   112.72   156.17   257.02   297.52
          (Kelvin)            323.72   355.17   358.25   370.04   431.00
                              481.09   594.48   663.52   688.21   704.52
                              813.14   838.43   894.94  1033.83  1088.11
                             1199.58  1266.99  1276.70  1340.51  1356.16
                             1375.44  1395.52  1406.24  1426.17  1489.93
                             1526.31  1550.29  1568.80  1598.38  1641.40
                             1657.97  1687.03  1711.80  1735.56  1800.20
                             1840.49  1866.71  1926.11  1938.79  1961.63
                             1996.09  2046.27  2053.76  2063.82  2082.05
                             2135.01  2183.57  2184.07  2194.14  2196.31
                             2199.25  2208.00  2216.35  2647.84  4309.86
                             4330.82  4374.46  4378.70  4385.66  4397.70
                             4451.08  4465.71  4473.59  4478.79  4481.72
                             4491.88  4497.03  4512.52  4553.25  4612.87

 Zero-point correction=                           0.240195 (Hartree/Particle)
 Thermal correction to Energy=                    0.251788
 Thermal correction to Enthalpy=                  0.252732
 Thermal correction to Gibbs Free Energy=         0.203294
 Sum of electronic and zero-point Energies=           -465.664170
 Sum of electronic and thermal Energies=              -465.652577
 Sum of electronic and thermal Enthalpies=            -465.651633
 Sum of electronic and thermal Free Energies=         -465.701071

                     E (Thermal)             CV                S
                      KCal/Mol        Cal/Mol-Kelvin    Cal/Mol-Kelvin
 Total                  157.999             44.671            104.050
 Electronic               0.000              0.000              0.000
 Translational            0.889              2.981             40.968
 Rotational               0.889              2.981             30.175
 Vibrational            156.222             38.709             32.907
 Vibration     1          0.597              1.973              4.458
 Vibration     2          0.600              1.964              3.932
 Vibration     3          0.606              1.942              3.295
 Vibration     4          0.629              1.869              2.343
 Vibration     5          0.641              1.830              2.072
 Vibration     6          0.650              1.803              1.919
 Vibration     7          0.661              1.768              1.753
 Vibration     8          0.662              1.764              1.738
 Vibration     9          0.667              1.751              1.681
 Vibration    10          0.692              1.675              1.419
 Vibration    11          0.716              1.607              1.239
 Vibration    12          0.777              1.442              0.915
 Vibration    13          0.819              1.336              0.763
 Vibration    14          0.835              1.298              0.715
 Vibration    15          0.846              1.273              0.684
 Vibration    16          0.921              1.107              0.514
 Vibration    17          0.940              1.069              0.480

 Normal termination of Gaussian 16 at Thu Feb 22 10:15:20 2024.
