 Gaussian 16, Revision A.03,
 Gaussian 16:  EM64M-G16RevA.03 25-Dec-2016

 ---------------------
 # freq b3lyp/6-31g(d)
 ---------------------

 ---------
 good luck
 ---------
 Symbolic Z-matrix:
 Charge =  0 Multiplicity = 1

                         Standard orientation:
 ---------------------------------------------------------------------
 Center     Atomic      Atomic             Coordinates (Angstroms)
 Number     Number       Type             X           Y           Z
 ---------------------------------------------------------------------
      1          8           0        2.694529    1.420769   -0.391187
      2          6           0        1.652162    0.858530   -0.135646
      3          6           0        1.519655   -0.408562    0.730493
      4          6           0        2.712824   -1.355776    0.581937
      5          6           0        0.150454   -0.956670    0.360103
      6          6           0       -0.149088   -1.163201   -1.107001
      7          6           0       -0.650364    0.086996   -0.414688
      8          6           0       -2.138016    0.365383   -0.163728
      9          6           0       -3.042952   -0.867076   -0.312059
     10          6           0       -2.358057    1.014732    1.215239
     11          6           0        0.264635    1.292226   -0.624212
     12          1           0        1.483720   -0.049357    1.773069
     13          1           0        2.739390   -1.795391   -0.421288
     14          1           0        3.648415   -0.809486    0.736165
     15          1           0        2.659125   -2.173680    1.308319
     16          1           0       -0.350979   -1.609515    1.070836
     17          1           0        0.660204   -1.066087   -1.830431
     18          1           0       -0.863737   -1.939011   -1.361284
     19          1           0       -2.456111    1.090956   -0.928414
     20          1           0       -2.761502   -1.664396    0.387854
     21          1           0       -4.083198   -0.598664   -0.096353
     22          1           0       -3.011090   -1.278063   -1.326169
     23          1           0       -1.755273    1.919610    1.349939
     24          1           0       -3.408475    1.298084    1.348590
     25          1           0       -2.094784    0.316581    2.019369
     26          1           0        0.322192    1.638373   -1.662862
     27          1           0       -0.051640    2.154416   -0.020484
 ---------------------------------------------------------------------

 SCF Done:  E(RB3LYP) =  -465.901647159     A.U. after   13 cycles

 The electronic state is 1-A.
 Alpha  occ. eigenvalues --  -19.13766 -10.27022 -10.20186 -10.19800 -10.19697
 Alpha  occ. eigenvalues --  -10.19407 -10.19078 -10.18826 -10.17948 -10.17820
 Alpha  occ. eigenvalues --  -10.17533  -1.03690  -0.88965  -0.79439  -0.76024
 Alpha  occ. eigenvalues --   -0.73805  -0.68548  -0.65600  -0.61686  -0.58206
 Alpha  occ. eigenvalues --   -0.54196  -0.51523  -0.50148  -0.45590  -0.45156
 Alpha  occ. eigenvalues --   -0.44893  -0.43855  -0.42327  -0.41664  -0.39745
 Alpha  occ. eigenvalues --   -0.39398  -0.38341  -0.37162  -0.36945  -0.35734
 Alpha  occ. eigenvalues --   -0.34875  -0.34384  -0.33352  -0.33087  -0.28267
 Alpha  occ. eigenvalues --   -0.26703  -0.23723
 Alpha virt. eigenvalues --   -0.01625   0.07764   0.10020   0.11213   0.11732
 Alpha virt. eigenvalues --    0.12009   0.12592   0.14194   0.14884   0.15325
 Alpha virt. eigenvalues --    0.16077   0.16894   0.17277   0.18401   0.19196

 Mulliken charges:
               1
     1  O   -0.451985
     2  C    0.422249
     3  C   -0.154137
     4  C   -0.440038
     5  C   -0.145525
     6  C   -0.349429
     7  C    0.110388
     8  C   -0.097415
     9  C   -0.461320
    10  C   -0.447853
    11  C   -0.375748
    12  H    0.156620
    13  H    0.148457
    14  H    0.167516
    15  H    0.141806
    16  H    0.137056
    17  H    0.150725
    18  H    0.154600
    19  H    0.128127
    20  H    0.142893
    21  H    0.145631
    22  H    0.149393
    23  H    0.142176
    24  H    0.143531
    25  H    0.142949
    26  H    0.170318
    27  H    0.169015
 Sum of Mulliken charges =  -0.00000

 Dipole moment (field-independent basis, Debye):
    X=             -2.6154    Y=             -1.1962    Z=              0.6402  Tot=              2.9464
 Quadrupole moment (field-independent basis, Debye-Ang):
   XX=            -75.4792   YY=            -69.4064   ZZ=            -66.6378
   XY=             -5.1703   XZ=              2.1051   YZ=              0.6428

  Exact polarizability: 116.112  -0.920  95.666   0.745  -1.000  87.934
 Approx polarizability: 149.833   2.917 140.001  -1.380  -4.038 135.013

                      1                      2                      3
                      A                      A                      A
 Frequencies --     58.1789                81.8572               111.6296
 Red. masses --      3.1757                 3.3100                 3.0178
 Frc consts  --      0.0063                 0.0131                 0.0222
 IR Inten    --      1.2454                 2.2959                 0.1237

                      4                      5                      6
                      A                      A                      A
 Frequencies --    179.1913               205.3825               227.1859
 Red. masses --      2.6507                 1.0407                 1.1103
 Frc consts  --      0.0501                 0.0259                 0.0338
 IR Inten    --      0.0523                 0.2184                 0.0647

                      7                      8                      9
                      A                      A                      A
 Frequencies --    253.4555               258.6580               275.8326
 Red. masses --      2.3166                 2.0994                 1.6169
 Frc consts  --      0.0877                 0.0828                 0.0725
 IR Inten    --      3.3904                 0.5423                 1.7121

                     10                     11                     12
                      A                      A                      A
 Frequencies --    343.4653               356.4984               412.9069
 Red. masses --      2.4719                 2.0527                 2.5295
 Frc consts  --      0.1718                 0.1537                 0.2541
 IR Inten    --      0.1631                 0.1072                 0.8821

                     13                     14                     15
                      A                      A                      A
 Frequencies --    445.7875               469.5638               524.2511
 Red. masses --      3.0739                 2.8230                 3.0170
 Frc consts  --      0.3599                 0.3667                 0.4885
 IR Inten    --      4.1677                 1.2870                 3.4287

                     16                     17                     18
                      A                      A                      A
 Frequencies --    553.9435               567.4291               627.7438
 Red. masses --      2.4125                 3.5693                 3.0637
 Frc consts  --      0.4362                 0.6771                 0.7113
 IR Inten    --      1.8114                 0.9058                 0.6164

                     19                     20                     21
                      A                      A                      A
 Frequencies --    709.5228               756.6795               833.0328
 Red. masses --      3.0393                 3.2104                 1.8809
 Frc consts  --      0.9015                 1.0830                 0.7690
 IR Inten    --      2.5623                 6.3488                 4.4376

                     22                     23                     24
                      A                      A                      A
 Frequencies --    877.5736               884.2842               925.2164
 Red. masses --      2.3434                 2.3998                 1.6878
 Frc consts  --      1.0633                 1.1056                 0.8513
 IR Inten    --      1.4255                 1.9907                 1.5986

                     25                     26                     27
                      A                      A                      A
 Frequencies --    939.3568               954.4965               970.2331
 Red. masses --      1.2410                 1.6322                 1.5527
 Frc consts  --      0.6452                 0.8761                 0.8611
 IR Inten    --      3.2244                 0.5798                 0.9453

                     28                     29                     30
                      A                      A                      A
 Frequencies --    973.9117               992.7475              1037.0644
 Red. masses --      1.4847                 2.1058                 1.8137
 Frc consts  --      0.8297                 1.2228                 1.1493
 IR Inten    --      0.5091                 4.6866                16.5538

                     31                     32                     33
                      A                      A                      A
 Frequencies --   1069.0412              1079.6205              1099.4976
 Red. masses --      1.2712                 1.3538                 1.9153
 Frc consts  --      0.8560                 0.9297                 1.3642
 IR Inten    --      1.9106                12.2198                18.9437

                     34                     35                     36
                      A                      A                      A
 Frequencies --   1113.4294              1142.3867              1155.6306
 Red. masses --      1.9292                 1.8337                 1.8649
 Frc consts  --      1.4092                 1.4099                 1.4674
 IR Inten    --      1.1597                 8.0383                 0.0908

                     37                     38                     39
                      A                      A                      A
 Frequencies --   1174.0873              1185.2712              1204.1703
 Red. masses --      2.6456                 1.8287                 1.4964
 Frc consts  --      2.1487                 1.5137                 1.2784
 IR Inten    --     27.7744                 4.4459                11.5870

                     40                     41                     42
                      A                      A                      A
 Frequencies --   1234.7051              1290.1021              1299.2347
 Red. masses --      1.5831                 2.0008                 2.0208
 Frc consts  --      1.4219                 1.9620                 2.0098
 IR Inten    --      0.5509                 0.9660                 1.9864

                     43                     44                     45
                      A                      A                      A
 Frequencies --   1321.7804              1351.7148              1362.7754
 Red. masses --      1.6476                 1.7984                 1.3454
 Frc consts  --      1.6960                 1.9360                 1.4721
 IR Inten    --     14.6493                 2.7518                 3.3160

                     46                     47                     48
                      A                      A                      A
 Frequencies --   1391.2147              1414.0159              1429.3768
 Red. masses --      1.5492                 2.0301                 1.2584
 Frc consts  --      1.7666                 2.3915                 1.5148
 IR Inten    --      5.5718                 0.1838                 4.4238

                     49                     50                     51
                      A                      A                      A
 Frequencies --   1433.4728              1449.0621              1483.5733
 Red. masses --      1.2606                 1.2362                 1.0922
 Frc consts  --      1.5262                 1.5293                 1.4163
 IR Inten    --      4.4129                 6.1493                 3.6016

                     52                     53                     54
                      A                      A                      A
 Frequencies --   1516.0074              1523.3150              1525.9579
 Red. masses --      1.1339                 1.0870                 1.0540
 Frc consts  --      1.5354                 1.4861                 1.4460
 IR Inten    --      2.3196                 3.0793                 1.6325

                     55                     56                     57
                      A                      A                      A
 Frequencies --   1527.0271              1528.7138              1536.6151
 Red. masses --      1.1058                 1.0524                 1.0549
 Frc consts  --      1.5192                 1.4491                 1.4675
 IR Inten    --      9.0755                 2.9867                 4.8475

                     58                     59                     60
                      A                      A                      A
 Frequencies --   1544.7905              1840.1812              2992.3239
 Red. masses --      1.0522                12.6037                 1.0811
 Frc consts  --      1.4795                25.1461                 5.7034
 IR Inten    --      8.9963               191.4792                16.1854

                     61                     62                     63
                      A                      A                      A
 Frequencies --   3004.3000              3041.9232              3044.8087
 Red. masses --      1.0834                 1.0421                 1.0524
 Frc consts  --      5.7613                 5.6816                 5.7485
 IR Inten    --     26.0136                 8.8698                32.6350

                     64                     65                     66
                      A                      A                      A
 Frequencies --   3048.4564              3056.2560              3091.4092
 Red. masses --      1.0420                 1.0349                 1.0983
 Frc consts  --      5.7053                 5.6956                 6.1844
 IR Inten    --     17.3652                27.0193                12.7609

                     67                     68                     69
                      A                      A                      A
 Frequencies --   3104.8960              3111.8281              3115.1127
 Red. masses --      1.1009                 1.1008                 1.1013
 Frc consts  --      6.2528                 6.2805                 6.2964
 IR Inten    --      4.5682                65.4788                39.6566

                     70                     71                     72
                      A                      A                      A
 Frequencies --   3121.8144              3122.3828              3129.2148
 Red. masses --      1.1012                 1.1004                 1.0642
 Frc consts  --      6.3231                 6.3208                 6.1399
 IR Inten    --     27.6332                14.2061                27.4627

                     73                     74                     75
                      A                      A                      A
 Frequencies --   3136.0117              3167.6656              3224.3149
 Red. masses --      1.1024                 1.0900                 1.1096
 Frc consts  --      6.3879                 6.4439                 6.7967
 IR Inten    --     16.0862                15.7383                11.8110

 - Thermochemistry -
 -------------------
 Temperature   298.150 Kelvin.  Pressure   1.00000 Atm.
 Atom     1 has atomic number  8 and mass  15.99491

 Molecular mass:   152.12012 amu.
 Principal axes and moments of inertia in atomic units:
                           1         2         3
     Eigenvalues --   895.904232410.992672730.95861
           X            0.99962  -0.02747   0.00126
           Y            0.02743   0.99930   0.02556
           Z           -0.00196  -0.02552   0.99967
 This molecule is an asymmetric top.
 Rotational symmetry number  1.
 Warning -- assumption of classical behavior for rotation
           may cause significant error
 Rotational temperatures (Kelvin)      0.09668     0.03592     0.03172
 Rotational constants (GHZ):           2.01444     0.74855     0.66085
 Zero-point vibrational energy     631308.7 (Joules/Mol)
                                  150.88640 (Kcal/Mol)
 Warning -- explicit consideration of  17 degrees of freedom as
           vibrations may cause significant error
 Vibrational temperatures:     83.71   117.77   160.61   257.82   295.50
          (Kelvin)            326.87   364.67   372.15   396.86   494.17
                              512.92   594.08   641.39   675.60   754.28
                              797.00   816.40   903.18  1020.85  1088.69
                             1198.55  1262.63  1272.29  1331.18  1351.52
                             1373.31  1395.95  1401.24  1428.34  1492.10
                             1538.11  1553.33  1581.93  1601.98  1643.64
                             1662.69  1689.25  1705.34  1732.53  1776.47
                             1856.17  1869.31  1901.75  1944.82  1960.73
                             2001.65  2034.45  2056.55  2062.45  2084.88
                             2134.53  2181.20  2191.71  2195.51  2197.05
                             2199.48  2210.85  2222.61  2647.61  4305.29
                             4322.52  4376.65  4380.80  4386.05  4397.27
                             4447.85  4467.25  4477.23  4481.95  4491.59
                             4492.41  4502.24  4512.02  4557.56  4639.07

 Zero-point correction=                           0.240453 (Hartree/Particle)
 Thermal correction to Energy=                    0.251923
 Thermal correction to Enthalpy=                  0.252867
 Thermal correction to Gibbs Free Energy=         0.203726
 Sum of electronic and zero-point Energies=           -465.661194
 Sum of electronic and thermal Energies=              -465.649724
 Sum of electronic and thermal Enthalpies=            -465.648780
 Sum of electronic and thermal Free Energies=         -465.697921

                     E (Thermal)             CV                S
                      KCal/Mol        Cal/Mol-Kelvin    Cal/Mol-Kelvin
 Total                  158.084             44.525            103.426
 Electronic               0.000              0.000              0.000
 Translational            0.889              2.981             40.968
 Rotational               0.889              2.981             30.157
 Vibrational            156.307             38.563             32.300
 Vibration     1          0.596              1.974              4.518
 Vibration     2          0.600              1.962              3.846
 Vibration     3          0.607              1.940              3.240
 Vibration     4          0.629              1.868              2.337
 Vibration     5          0.640              1.832              2.084
 Vibration     6          0.651              1.800              1.901
 Vibration     7          0.665              1.757              1.706
 Vibration     8          0.667              1.748              1.671
 Vibration     9          0.677              1.718              1.559
 Vibration    10          0.722              1.589              1.196
 Vibration    11          0.732              1.562              1.137
 Vibration    12          0.777              1.442              0.916
 Vibration    13          0.805              1.370              0.809
 Vibration    14          0.827              1.318              0.739
 Vibration    15          0.879              1.196              0.600
 Vibration    16          0.909              1.131              0.536
 Vibration    17          0.923              1.102              0.509

 Normal termination of Gaussian 16 at Thu Feb 22 10:17:57 2024.
