 Gaussian 16, Revision A.03,
 Gaussian 16:  EM64M-G16RevA.03 25-Dec-2016

 ---------------------
 # freq b3lyp/6-31g(d)
 ---------------------

 ---------
 good luck
 ---------
 Symbolic Z-matrix:
 Charge =  0 Multiplicity = 1

                         Standard orientation:
 ---------------------------------------------------------------------
 Center     Atomic      Atomic             Coordinates (Angstroms)
 Number     Number       Type             X           Y           Z
 ---------------------------------------------------------------------
      1          8           0       -2.575665   -0.380249    0.065290
      2          6           0       -1.391314   -0.129765   -0.054090
      3          6           0       -0.296377   -1.110365    0.352444
      4          6           0        0.619010   -0.400872    1.379892
      5          6           0        0.685136   -1.383250   -0.823821
      6          6           0        1.762625   -0.258066   -0.739676
      7          6           0        1.353678    0.609803    0.478714
      8          6           0        0.372537    1.733787    0.088417
      9          6           0       -0.888696    1.195065   -0.628436
     10          1           0       -0.774338   -2.017295    0.732049
     11          1           0        1.315972   -1.124266    1.822139
     12          1           0        0.065997    0.072943    2.199924
     13          1           0        1.141820   -2.368783   -0.682935
     14          1           0        0.174308   -1.410418   -1.792652
     15          1           0        1.822976    0.333466   -1.660314
     16          1           0        2.755668   -0.691954   -0.579790
     17          1           0        2.225959    1.051531    0.974092
     18          1           0        0.069640    2.266906    0.999363
     19          1           0        0.872751    2.469630   -0.553658
     20          1           0       -1.711837    1.915242   -0.614624
     21          1           0       -0.653192    1.006971   -1.686581
 ---------------------------------------------------------------------

 SCF Done:  E(RB3LYP) =  -387.303707875     A.U. after   14 cycles

 The electronic state is 1-A.
 Alpha  occ. eigenvalues --  -19.12936 -10.26453 -10.19446 -10.19189 -10.19171
 Alpha  occ. eigenvalues --  -10.19140 -10.18982 -10.18973 -10.18739  -1.02840
 Alpha  occ. eigenvalues --   -0.86175  -0.76956  -0.73585  -0.71546  -0.63493
 Alpha  occ. eigenvalues --   -0.60101  -0.55658  -0.51684  -0.49829  -0.47841
 Alpha  occ. eigenvalues --   -0.44472  -0.42520  -0.42024  -0.41535  -0.39566
 Alpha  occ. eigenvalues --   -0.39206  -0.35729  -0.34769  -0.34286  -0.33626
 Alpha  occ. eigenvalues --   -0.32077  -0.31892  -0.31464  -0.23073
 Alpha virt. eigenvalues --   -0.00788   0.06969   0.08906   0.11915   0.13525
 Alpha virt. eigenvalues --    0.14386   0.14751   0.16556   0.16836   0.17310
 Alpha virt. eigenvalues --    0.17690   0.17996   0.19590   0.19873   0.20510

 Mulliken charges:
               1
     1  O   -0.457691
     2  C    0.462259
     3  C   -0.173387
     4  C   -0.283399
     5  C   -0.289563
     6  C   -0.275987
     7  C   -0.095329
     8  C   -0.269493
     9  C   -0.361489
    10  H    0.143247
    11  H    0.141939
    12  H    0.145569
    13  H    0.149133
    14  H    0.147340
    15  H    0.138167
    16  H    0.141847
    17  H    0.126123
    18  H    0.142262
    19  H    0.138816
    20  H    0.166074
    21  H    0.163562
 Sum of Mulliken charges =  -0.00000

 Dipole moment (field-independent basis, Debye):
    X=              3.1438    Y=              0.5862    Z=             -0.2450  Tot=              3.2073
 Quadrupole moment (field-independent basis, Debye-Ang):
   XX=            -64.0728   YY=            -52.9766   ZZ=            -53.0992
   XY=             -2.3847   XZ=              0.7570   YZ=             -0.2070

  Exact polarizability:  85.488  -0.140  78.606  -0.379  -1.278  70.652
 Approx polarizability: 126.092   2.253 108.157  -1.897  -2.149 104.596

                      1                      2                      3
                      A                      A                      A
 Frequencies --     95.1938               166.5464               236.9025
 Red. masses --      4.3611                 1.9500                 2.1819
 Frc consts  --      0.0233                 0.0319                 0.0721
 IR Inten    --      2.8860                 0.5938                 0.3114

                      4                      5                      6
                      A                      A                      A
 Frequencies --    340.2616               379.4671               411.1055
 Red. masses --      2.1912                 2.4059                 3.2061
 Frc consts  --      0.1495                 0.2041                 0.3192
 IR Inten    --      0.2199                 0.3077                 1.7654

                      7                      8                      9
                      A                      A                      A
 Frequencies --    459.2119               506.7531               630.2825
 Red. masses --      4.8616                 2.2689                 3.2728
 Frc consts  --      0.6040                 0.3433                 0.7660
 IR Inten    --     11.5034                 1.4925                 1.1003

                     10                     11                     12
                      A                      A                      A
 Frequencies --    686.7193               736.4512               787.2981
 Red. masses --      3.4795                 3.8969                 1.8160
 Frc consts  --      0.9668                 1.2452                 0.6632
 IR Inten    --      1.6913                 1.4908                 0.1467

                     13                     14                     15
                      A                      A                      A
 Frequencies --    803.2422               821.8034               886.2036
 Red. masses --      2.0299                 1.8386                 2.6936
 Frc consts  --      0.7717                 0.7316                 1.2464
 IR Inten    --      1.5334                 2.4238                 0.9106

                     16                     17                     18
                      A                      A                      A
 Frequencies --    888.7273               921.2986               941.3001
 Red. masses --      2.2723                 2.8092                 2.1958
 Frc consts  --      1.0574                 1.4049                 1.1463
 IR Inten    --      0.7087                 4.4314                 5.8911

                     19                     20                     21
                      A                      A                      A
 Frequencies --    975.7414               999.7054              1024.8922
 Red. masses --      1.8999                 1.6407                 2.4580
 Frc consts  --      1.0657                 0.9661                 1.5212
 IR Inten    --      1.7342                 1.0655                 0.6457

                     22                     23                     24
                      A                      A                      A
 Frequencies --   1029.3713              1064.2354              1094.8716
 Red. masses --      1.9425                 1.6519                 1.7359
 Frc consts  --      1.2127                 1.1023                 1.2260
 IR Inten    --      0.9136                 7.3839                 7.2193

                     25                     26                     27
                      A                      A                      A
 Frequencies --   1124.7810              1176.1210              1183.7870
 Red. masses --      1.4424                 1.2316                 1.1343
 Frc consts  --      1.0751                 1.0038                 0.9365
 IR Inten    --     12.8695                 2.1808                 1.3957

                     28                     29                     30
                      A                      A                      A
 Frequencies --   1210.2341              1242.1495              1267.3301
 Red. masses --      1.5343                 1.5199                 1.5163
 Frc consts  --      1.3240                 1.3817                 1.4348
 IR Inten    --      6.8967                 5.3667                10.6373

                     31                     32                     33
                      A                      A                      A
 Frequencies --   1271.8479              1285.6583              1322.8258
 Red. masses --      1.1646                 1.6062                 1.3277
 Frc consts  --      1.1100                 1.5642                 1.3689
 IR Inten    --      3.0661                 1.1553                 0.5786

                     34                     35                     36
                      A                      A                      A
 Frequencies --   1335.0916              1352.4913              1359.9308
 Red. masses --      1.4143                 1.4720                 1.7918
 Frc consts  --      1.4853                 1.5865                 1.9525
 IR Inten    --      3.2078                 0.2050                 4.4453

                     37                     38                     39
                      A                      A                      A
 Frequencies --   1369.6343              1379.2802              1395.6786
 Red. masses --      1.5044                 1.5358                 1.4189
 Frc consts  --      1.6628                 1.7215                 1.6284
 IR Inten    --      4.3709                 0.3151                 4.9724

                     40                     41                     42
                      A                      A                      A
 Frequencies --   1495.5843              1517.9477              1522.1256
 Red. masses --      1.0808                 1.0843                 1.0871
 Frc consts  --      1.4243                 1.4721                 1.4840
 IR Inten    --      7.0054                 2.5249                 5.7742

                     43                     44                     45
                      A                      A                      A
 Frequencies --   1529.4019              1547.6056              1816.0679
 Red. masses --      1.0890                 1.0959                11.2946
 Frc consts  --      1.5008                 1.5465                21.9475
 IR Inten    --      5.9044                 1.4460               205.8222

                     46                     47                     48
                      A                      A                      A
 Frequencies --   3030.0268              3039.2207              3047.6696
 Red. masses --      1.0707                 1.0610                 1.0617
 Frc consts  --      5.7916                 5.7740                 5.8103
 IR Inten    --      6.7720                30.4033                25.2164

                     49                     50                     51
                      A                      A                      A
 Frequencies --   3057.0246              3066.5408              3074.9447
 Red. masses --      1.0617                 1.0651                 1.0881
 Frc consts  --      5.8460                 5.9012                 6.0616
 IR Inten    --     13.1580                59.6412                30.8529

                     52                     53                     54
                      A                      A                      A
 Frequencies --   3078.9066              3089.1574              3092.4874
 Red. masses --      1.0957                 1.1055                 1.1048
 Frc consts  --      6.1197                 6.2157                 6.2251
 IR Inten    --     52.4552                 3.6522                28.2202

                     55                     56                     57
                      A                      A                      A
 Frequencies --   3108.5253              3114.0867              3118.6137
 Red. masses --      1.1004                 1.0924                 1.0941
 Frc consts  --      6.2647                 6.2417                 6.2697
 IR Inten    --     31.6205                49.6482                12.9863

 - Thermochemistry -
 -------------------
 Temperature   298.150 Kelvin.  Pressure   1.00000 Atm.
 Atom     1 has atomic number  8 and mass  15.99491

 Molecular mass:   124.08882 amu.
 Principal axes and moments of inertia in atomic units:
                           1         2         3
     Eigenvalues --   711.278911079.934701306.71194
           X            0.99948  -0.03223   0.00081
           Y            0.03223   0.99947  -0.00526
           Z           -0.00064   0.00528   0.99999
 This molecule is an asymmetric top.
 Rotational symmetry number  1.
 Warning -- assumption of classical behavior for rotation
           may cause significant error
 Rotational temperatures (Kelvin)      0.12177     0.08020     0.06628
 Rotational constants (GHZ):           2.53732     1.67116     1.38113
 Zero-point vibrational energy     493521.6 (Joules/Mol)
                                  117.95449 (Kcal/Mol)
 Warning -- explicit consideration of   8 degrees of freedom as
           vibrations may cause significant error
 Vibrational temperatures:    136.96   239.62   340.85   489.56   545.97
          (Kelvin)            591.49   660.70   729.10   906.84   988.04
                             1059.59  1132.75  1155.69  1182.39  1275.05
                             1278.68  1325.54  1354.32  1403.87  1438.35
                             1474.59  1481.04  1531.20  1575.28  1618.31
                             1692.18  1703.21  1741.26  1787.18  1823.41
                             1829.91  1849.78  1903.25  1920.90  1945.93
                             1956.64  1970.60  1984.48  2008.07  2151.81
                             2183.99  2190.00  2200.47  2226.66  2612.92
                             4359.53  4372.76  4384.92  4398.38  4412.07
                             4424.16  4429.86  4444.61  4449.40  4472.47
                             4480.48  4486.99

 Zero-point correction=                           0.187972 (Hartree/Particle)
 Thermal correction to Energy=                    0.195357
 Thermal correction to Enthalpy=                  0.196301
 Thermal correction to Gibbs Free Energy=         0.156222
 Sum of electronic and zero-point Energies=           -387.115735
 Sum of electronic and thermal Energies=              -387.108351
 Sum of electronic and thermal Enthalpies=            -387.107407
 Sum of electronic and thermal Free Energies=         -387.147486

                     E (Thermal)             CV                S
                      KCal/Mol        Cal/Mol-Kelvin    Cal/Mol-Kelvin
 Total                  122.588             30.038             84.354
 Electronic               0.000              0.000              0.000
 Translational            0.889              2.981             40.361
 Rotational               0.889              2.981             28.397
 Vibrational            120.811             24.077             15.595
 Vibration     1          0.603              1.953              3.550
 Vibration     2          0.624              1.884              2.474
 Vibration     3          0.656              1.784              1.826
 Vibration     4          0.720              1.595              1.211
 Vibration     5          0.749              1.514              1.041
 Vibration     6          0.775              1.446              0.923
 Vibration     7          0.817              1.341              0.768
 Vibration     8          0.862              1.235              0.641

 Normal termination of Gaussian 16 at Wed Feb 21 18:23:30 2024.
