 Gaussian 16, Revision A.03,
 Gaussian 16:  EM64M-G16RevA.03 25-Dec-2016

 ---------------------
 # freq b3lyp/6-31g(d)
 ---------------------

 ---------
 good luck
 ---------
 Symbolic Z-matrix:
 Charge =  0 Multiplicity = 1

                         Standard orientation:
 ---------------------------------------------------------------------
 Center     Atomic      Atomic             Coordinates (Angstroms)
 Number     Number       Type             X           Y           Z
 ---------------------------------------------------------------------
      1          6           0       -3.064016   -0.398444   -1.392443
      2          6           0       -2.457099   -0.214116    0.006591
      3          6           0       -0.939418   -0.551572    0.095396
      4          6           0       -0.276238    0.830282   -0.176964
      5          6           0        1.279815    0.903373   -0.103001
      6          6           0        1.829622    1.283511    1.297758
      7          6           0        1.797386    1.961305   -1.100951
      8          6           0        1.909561   -0.467756   -0.482965
      9          8           0        3.053992   -0.528281   -0.895515
     10          6           0        1.084035   -1.738031   -0.282769
     11          6           0       -0.328904   -1.571855   -0.882204
     12          6           0        0.767732   -1.957059    1.223803
     13          6           0       -0.544003   -1.162322    1.473544
     14          6           0       -1.118482    1.800566    0.667072
     15          6           0       -2.565816    1.272183    0.491408
     16          1           0       -3.010003   -1.440825   -1.726588
     17          1           0       -2.557435    0.221566   -2.142423
     18          1           0       -4.120896   -0.106042   -1.389205
     19          1           0       -3.010823   -0.871091    0.689087
     20          1           0       -0.524840    1.047861   -1.227658
     21          1           0        2.923574    1.243450    1.282895
     22          1           0        1.478496    0.625723    2.096713
     23          1           0        1.533078    2.306637    1.553027
     24          1           0        1.395263    2.949488   -0.849086
     25          1           0        1.493906    1.722538   -2.126675
     26          1           0        2.888837    2.009722   -1.080135
     27          1           0        1.659067   -2.562281   -0.713074
     28          1           0       -0.321097   -1.223908   -1.921384
     29          1           0       -0.856280   -2.535434   -0.858397
     30          1           0        0.610426   -3.027426    1.396893
     31          1           0        1.594214   -1.653847    1.874171
     32          1           0       -0.439481   -0.405893    2.257221
     33          1           0       -1.337654   -1.840970    1.807140
     34          1           0       -0.820965    1.760223    1.720826
     35          1           0       -1.013707    2.843647    0.348850
     36          1           0       -3.102900    1.868638   -0.255552
     37          1           0       -3.137770    1.354090    1.421819
 ---------------------------------------------------------------------

 SCF Done:  E(RB3LYP) =  -621.964534480     A.U. after   14 cycles

 The electronic state is 1-A.
 Alpha  occ. eigenvalues --  -19.12979 -10.26179 -10.20169 -10.19204 -10.19020
 Alpha  occ. eigenvalues --  -10.18907 -10.18770 -10.18577 -10.18534 -10.18251
 Alpha  occ. eigenvalues --  -10.18010 -10.17978 -10.17930 -10.17574 -10.17010
 Alpha  occ. eigenvalues --   -1.02944  -0.87250  -0.81258  -0.79966  -0.73569
 Alpha  occ. eigenvalues --   -0.71993  -0.71431  -0.68288  -0.66456  -0.63960
 Alpha  occ. eigenvalues --   -0.60360  -0.58650  -0.55271  -0.53595  -0.50819
 Alpha  occ. eigenvalues --   -0.48277  -0.47519  -0.45794  -0.44889  -0.43450
 Alpha  occ. eigenvalues --   -0.43207  -0.42535  -0.41209  -0.40987  -0.39649
 Alpha  occ. eigenvalues --   -0.39549  -0.38156  -0.37626  -0.37020  -0.36681
 Alpha  occ. eigenvalues --   -0.36424  -0.34629  -0.33848  -0.33576  -0.32629
 Alpha  occ. eigenvalues --   -0.32292  -0.31718  -0.31278  -0.30643  -0.29849
 Alpha  occ. eigenvalues --   -0.29064  -0.22796
 Alpha virt. eigenvalues --   -0.01042   0.06706   0.08533   0.09359   0.09923
 Alpha virt. eigenvalues --    0.10711   0.12664   0.13465   0.14294   0.14585
 Alpha virt. eigenvalues --    0.15192   0.15540   0.16411   0.16784   0.17068

 Mulliken charges:
               1
     1  C   -0.459366
     2  C   -0.092476
     3  C    0.090161
     4  C   -0.119934
     5  C    0.016457
     6  C   -0.470021
     7  C   -0.450876
     8  C    0.456653
     9  O   -0.468954
    10  C   -0.177187
    11  C   -0.298754
    12  C   -0.290613
    13  C   -0.297434
    14  C   -0.282947
    15  C   -0.286371
    16  H    0.144102
    17  H    0.143198
    18  H    0.143898
    19  H    0.118778
    20  H    0.123807
    21  H    0.164001
    22  H    0.150177
    23  H    0.151471
    24  H    0.137060
    25  H    0.140928
    26  H    0.168110
    27  H    0.141624
    28  H    0.141476
    29  H    0.136605
    30  H    0.147924
    31  H    0.150339
    32  H    0.142336
    33  H    0.137082
    34  H    0.138100
    35  H    0.135914
    36  H    0.138442
    37  H    0.136293
 Sum of Mulliken charges =  -0.00000

 Dipole moment (field-independent basis, Debye):
    X=             -2.7531    Y=              0.1422    Z=              1.1434  Tot=              2.9844
 Quadrupole moment (field-independent basis, Debye-Ang):
   XX=           -103.7568   YY=            -90.3966   ZZ=            -92.8679
   XY=              2.2954   XZ=              4.1557   YZ=             -0.8546

  Exact polarizability: 149.721   0.341 136.929  -1.251   0.051 121.858
 Approx polarizability: 207.099   0.261 194.820  -7.287  -0.273 189.957

                      1                      2                      3
                      A                      A                      A
 Frequencies --     39.4002                69.6922               134.7330
 Red. masses --      2.3143                 5.8675                 2.4474
 Frc consts  --      0.0021                 0.0168                 0.0262
 IR Inten    --      0.0134                 3.0713                 0.0778

                      4                      5                      6
                      A                      A                      A
 Frequencies --    188.0132               215.8476               219.8453
 Red. masses --      1.8269                 2.5415                 1.5941
 Frc consts  --      0.0380                 0.0698                 0.0454
 IR Inten    --      0.0970                 0.7940                 0.0334

                      7                      8                      9
                      A                      A                      A
 Frequencies --    239.0701               247.3712               263.8451
 Red. masses --      2.1954                 1.6017                 1.9739
 Frc consts  --      0.0739                 0.0577                 0.0810
 IR Inten    --      0.0442                 0.4367                 0.0364

                     10                     11                     12
                      A                      A                      A
 Frequencies --    273.1819               296.1880               302.3154
 Red. masses --      1.1115                 1.7558                 1.8007
 Frc consts  --      0.0489                 0.0908                 0.0970
 IR Inten    --      0.0019                 0.2878                 0.2794

                     13                     14                     15
                      A                      A                      A
 Frequencies --    315.3914               335.6247               364.1577
 Red. masses --      3.0320                 2.7579                 3.2669
 Frc consts  --      0.1777                 0.1830                 0.2553
 IR Inten    --      3.3101                 0.5376                 1.6146

                     16                     17                     18
                      A                      A                      A
 Frequencies --    411.0562               423.0155               453.7969
 Red. masses --      4.7717                 2.3243                 2.9915
 Frc consts  --      0.4750                 0.2451                 0.3630
 IR Inten    --      0.8894                 0.6941                 3.1214

                     19                     20                     21
                      A                      A                      A
 Frequencies --    463.2509               510.9576               566.9443
 Red. masses --      3.1253                 3.2861                 2.4825
 Frc consts  --      0.3952                 0.5055                 0.4701
 IR Inten    --      0.5268                 4.2442                 1.9295

                     22                     23                     24
                      A                      A                      A
 Frequencies --    584.2933               667.7636               712.0133
 Red. masses --      3.0203                 2.8240                 3.3398
 Frc consts  --      0.6075                 0.7419                 0.9976
 IR Inten    --      2.2495                 0.1493                 0.4605

                     25                     26                     27
                      A                      A                      A
 Frequencies --    746.9921               768.0177               786.0899
 Red. masses --      3.5470                 3.0835                 3.1960
 Frc consts  --      1.1661                 1.0716                 1.1636
 IR Inten    --      1.6291                 1.1362                 0.8122

                     28                     29                     30
                      A                      A                      A
 Frequencies --    819.6397               835.8724               847.5715
 Red. masses --      1.6020                 1.6076                 2.6089
 Frc consts  --      0.6341                 0.6618                 1.1042
 IR Inten    --      1.1744                 0.5717                 2.7616

                     31                     32                     33
                      A                      A                      A
 Frequencies --    865.9831               910.1273               920.4126
 Red. masses --      2.6577                 2.3194                 2.4476
 Frc consts  --      1.1743                 1.1320                 1.2217
 IR Inten    --      0.5692                 0.3686                 2.0144

                     34                     35                     36
                      A                      A                      A
 Frequencies --    950.7284               952.7836               969.0117
 Red. masses --      2.1286                 1.9008                 1.5916
 Frc consts  --      1.1336                 1.0167                 0.8805
 IR Inten    --      8.4582                 2.4943                16.8598

                     37                     38                     39
                      A                      A                      A
 Frequencies --    976.9026               992.4872              1005.6690
 Red. masses --      2.5912                 1.7060                 1.9598
 Frc consts  --      1.4570                 0.9901                 1.1678
 IR Inten    --      0.0904                 0.6903                 4.2308

                     40                     41                     42
                      A                      A                      A
 Frequencies --   1010.2766              1035.6792              1042.8869
 Red. masses --      1.9421                 1.6741                 1.5027
 Frc consts  --      1.1679                 1.0580                 0.9630
 IR Inten    --      3.2405                 0.1807                 0.8620

                     43                     44                     45
                      A                      A                      A
 Frequencies --   1060.1671              1076.1709              1092.0583
 Red. masses --      1.6590                 2.4055                 1.9039
 Frc consts  --      1.0986                 1.6414                 1.3377
 IR Inten    --      0.7692                 4.7400                 1.2639

                     46                     47                     48
                      A                      A                      A
 Frequencies --   1099.5376              1115.4811              1123.5018
 Red. masses --      1.7145                 2.1065                 2.0317
 Frc consts  --      1.2212                 1.5443                 1.5110
 IR Inten    --     25.7429                 3.5168                 0.1914

                     49                     50                     51
                      A                      A                      A
 Frequencies --   1160.8857              1192.2454              1210.0886
 Red. masses --      2.1585                 2.1997                 1.5674
 Frc consts  --      1.7139                 1.8422                 1.3522
 IR Inten    --      1.0693                 2.4785                 1.6988

                     52                     53                     54
                      A                      A                      A
 Frequencies --   1215.3375              1234.0793              1248.7549
 Red. masses --      1.6003                 1.6477                 1.8899
 Frc consts  --      1.3926                 1.4785                 1.7364
 IR Inten    --      5.3052                 8.0122                 0.8683

                     55                     56                     57
                      A                      A                      A
 Frequencies --   1255.6453              1262.6838              1265.9136
 Red. masses --      1.5612                 1.7033                 2.2270
 Frc consts  --      1.4503                 1.6000                 2.1027
 IR Inten    --      1.1372                 6.4240                 1.7336

                     58                     59                     60
                      A                      A                      A
 Frequencies --   1287.0811              1302.6462              1322.0943
 Red. masses --      1.3696                 1.4113                 1.2738
 Frc consts  --      1.3368                 1.4110                 1.3118
 IR Inten    --      8.2883                 1.7448                 0.4345

                     61                     62                     63
                      A                      A                      A
 Frequencies --   1341.1638              1343.1464              1351.4459
 Red. masses --      1.4448                 1.3269                 1.5249
 Frc consts  --      1.5311                 1.4104                 1.6409
 IR Inten    --      0.0809                 0.9412                 1.2187

                     64                     65                     66
                      A                      A                      A
 Frequencies --   1355.5020              1368.1775              1378.0023
 Red. masses --      1.5853                 1.6210                 1.3407
 Frc consts  --      1.7162                 1.7877                 1.5000
 IR Inten    --      0.5837                 4.5869                 1.4742

                     67                     68                     69
                      A                      A                      A
 Frequencies --   1390.4054              1414.5722              1420.2482
 Red. masses --      1.3905                 1.3442                 1.2221
 Frc consts  --      1.5839                 1.5848                 1.4524
 IR Inten    --      2.9541                 1.0657                 4.1221

                     70                     71                     72
                      A                      A                      A
 Frequencies --   1439.7717              1445.0256              1512.0923
 Red. masses --      1.2305                 1.2204                 1.0543
 Frc consts  --      1.5029                 1.5015                 1.4203
 IR Inten    --      4.4175                11.5774                 0.8976

                     73                     74                     75
                      A                      A                      A
 Frequencies --   1517.4379              1520.7383              1523.1003
 Red. masses --      1.0602                 1.0723                 1.0797
 Frc consts  --      1.4383                 1.4610                 1.4758
 IR Inten    --      0.7603                 0.8009                 6.3030

                     76                     77                     78
                      A                      A                      A
 Frequencies --   1526.6747              1529.5940              1532.3952
 Red. masses --      1.0597                 1.0584                 1.0545
 Frc consts  --      1.4552                 1.4590                 1.4590
 IR Inten    --      0.9702                 4.6824                 2.3543

                     79                     80                     81
                      A                      A                      A
 Frequencies --   1534.6858              1541.0078              1545.2413
 Red. masses --      1.0576                 1.0898                 1.0635
 Frc consts  --      1.4677                 1.5247                 1.4962
 IR Inten    --      8.6232                 6.0457                 1.3141

                     82                     83                     84
                      A                      A                      A
 Frequencies --   1552.8868              1795.1375              2992.6072
 Red. masses --      1.0879                11.6323                 1.0823
 Frc consts  --      1.5457                22.0857                 5.7106
 IR Inten    --      7.3332               164.1993                17.8835

                     85                     86                     87
                      A                      A                      A
 Frequencies --   3037.6788              3038.5600              3041.7235
 Red. masses --      1.0635                 1.0771                 1.0438
 Frc consts  --      5.7817                 5.8592                 5.6900
 IR Inten    --      2.4331                23.7447                39.1263

                     88                     89                     90
                      A                      A                      A
 Frequencies --   3051.3195              3054.7755              3057.1745
 Red. masses --      1.0371                 1.0611                 1.0668
 Frc consts  --      5.6893                 5.8339                 5.8745
 IR Inten    --     23.1302                35.4902                23.2587

                     91                     92                     93
                      A                      A                      A
 Frequencies --   3060.4235              3064.8438              3070.0660
 Red. masses --      1.0472                 1.0550                 1.0635
 Frc consts  --      5.7790                 5.8387                 5.9060
 IR Inten    --      7.3162                37.3333                40.1085

                     94                     95                     96
                      A                      A                      A
 Frequencies --   3088.9877              3092.7433              3097.9828
 Red. masses --      1.1005                 1.1001                 1.0989
 Frc consts  --      6.1867                 6.1996                 6.2140
 IR Inten    --     21.5479                18.7399                 7.1223

                     97                     98                     99
                      A                      A                      A
 Frequencies --   3104.3739              3106.3457              3108.8713
 Red. masses --      1.1026                 1.1028                 1.0884
 Frc consts  --      6.2604                 6.2698                 6.1981
 IR Inten    --     20.2271                62.0185                16.1984

                    100                    101                    102
                      A                      A                      A
 Frequencies --   3112.6463              3113.1211              3115.1102
 Red. masses --      1.1021                 1.1028                 1.1017
 Frc consts  --      6.2913                 6.2969                 6.2988
 IR Inten    --     43.4896                26.0299                73.5330

                    103                    104                    105
                      A                      A                      A
 Frequencies --   3125.6442              3146.5440              3148.7164
 Red. masses --      1.1020                 1.1000                 1.0998
 Frc consts  --      6.3433                 6.4168                 6.4244
 IR Inten    --     16.0107                17.4271                24.4133

 - Thermochemistry -
 -------------------
 Temperature   298.150 Kelvin.  Pressure   1.00000 Atm.
 Atom     1 has atomic number  6 and mass  12.00000

 Molecular mass:   206.16707 amu.
 Principal axes and moments of inertia in atomic units:
                           1         2         3
     Eigenvalues --  1944.374353190.611533797.93922
           X            0.99943   0.02518   0.02243
           Y           -0.02504   0.99967  -0.00629
           Z           -0.02258   0.00572   0.99973
 This molecule is an asymmetric top.
 Rotational symmetry number  1.
 Warning -- assumption of classical behavior for rotation
           may cause significant error
 Rotational temperatures (Kelvin)      0.04455     0.02715     0.02281
 Rotational constants (GHZ):           0.92819     0.56564     0.47519
 Zero-point vibrational energy     885045.1 (Joules/Mol)
                                  211.53085 (Kcal/Mol)
 Warning -- explicit consideration of  22 degrees of freedom as
           vibrations may cause significant error
 Vibrational temperatures:     56.69   100.27   193.85   270.51   310.56
          (Kelvin)            316.31   343.97   355.91   379.61   393.05
                              426.15   434.96   453.78   482.89   523.94
                              591.42   608.62   652.91   666.51   735.15
                              815.71   840.67   960.76  1024.43  1074.76
                             1105.01  1131.01  1179.28  1202.63  1219.47
                             1245.96  1309.47  1324.27  1367.89  1370.84
                             1394.19  1405.54  1427.97  1446.93  1453.56
                             1490.11  1500.48  1525.34  1548.37  1571.23
                             1581.99  1604.93  1616.47  1670.26  1715.38
                             1741.05  1748.60  1775.56  1796.68  1806.59
                             1816.72  1821.37  1851.82  1874.22  1902.20
                             1929.64  1932.49  1944.43  1950.27  1968.50
                             1982.64  2000.48  2035.25  2043.42  2071.51
                             2079.07  2175.56  2183.25  2188.00  2191.40
                             2196.54  2200.74  2204.77  2208.07  2217.17
                             2223.26  2234.26  2582.80  4305.69  4370.54
                             4371.81  4376.36  4390.17  4395.14  4398.59
                             4403.27  4409.63  4417.14  4444.36  4449.77
                             4457.31  4466.50  4469.34  4472.97  4478.40
                             4479.09  4481.95  4497.10  4527.18  4530.30

 Zero-point correction=                           0.337096 (Hartree/Particle)
 Thermal correction to Energy=                    0.351115
 Thermal correction to Enthalpy=                  0.352059
 Thermal correction to Gibbs Free Energy=         0.297655
 Sum of electronic and zero-point Energies=           -621.627439
 Sum of electronic and thermal Energies=              -621.613420
 Sum of electronic and thermal Enthalpies=            -621.612475
 Sum of electronic and thermal Free Energies=         -621.666880

                     E (Thermal)             CV                S
                      KCal/Mol        Cal/Mol-Kelvin    Cal/Mol-Kelvin
 Total                  220.328             57.852            114.504
 Electronic               0.000              0.000              0.000
 Translational            0.889              2.981             41.875
 Rotational               0.889              2.981             31.533
 Vibrational            218.550             51.890             41.096
 Vibration     1          0.594              1.981              5.289
 Vibration     2          0.598              1.969              4.162
 Vibration     3          0.613              1.919              2.877
 Vibration     4          0.633              1.856              2.247
 Vibration     5          0.645              1.817              1.994
 Vibration     6          0.647              1.811              1.960
 Vibration     7          0.657              1.781              1.810
 Vibration     8          0.661              1.767              1.749
 Vibration     9          0.670              1.739              1.636
 Vibration    10          0.676              1.723              1.576
 Vibration    11          0.690              1.681              1.438
 Vibration    12          0.694              1.669              1.404
 Vibration    13          0.703              1.644              1.334
 Vibration    14          0.717              1.604              1.233
 Vibration    15          0.738              1.546              1.104
 Vibration    16          0.775              1.446              0.923
 Vibration    17          0.785              1.420              0.882
 Vibration    18          0.812              1.352              0.784
 Vibration    19          0.821              1.332              0.757
 Vibration    20          0.866              1.226              0.631
 Vibration    21          0.923              1.103              0.510
 Vibration    22          0.941              1.065              0.477

 Normal termination of Gaussian 16 at Sat Feb 24 01:12:16 2024.
