 Gaussian 16, Revision A.03,
 Gaussian 16:  EM64M-G16RevA.03 25-Dec-2016

 ---------------------
 # freq b3lyp/6-31g(d)
 ---------------------

 ---------
 good luck
 ---------
 Symbolic Z-matrix:
 Charge =  0 Multiplicity = 1

                         Standard orientation:
 ---------------------------------------------------------------------
 Center     Atomic      Atomic             Coordinates (Angstroms)
 Number     Number       Type             X           Y           Z
 ---------------------------------------------------------------------
      1          8           0       -2.735275   -0.000004   -0.669715
      2          6           0       -1.568191    0.000004   -0.334589
      3          6           0       -0.766225    1.296605   -0.097168
      4          6           0        0.535001    1.244748   -0.930973
      5          6           0        1.201432   -0.000003   -0.324215
      6          9           0        2.578307   -0.000007   -0.499039
      7          6           0        0.534996   -1.244753   -0.930966
      8          6           0       -0.766230   -1.296599   -0.097162
      9          6           0       -0.150438   -1.244286    1.324244
     10          6           0        0.757499    0.000002    1.200390
     11          6           0       -0.150432    1.244295    1.324238
     12          1           0       -1.405987    2.159660   -0.295129
     13          1           0        0.381642    1.157600   -2.011346
     14          1           0        1.139072    2.138919   -0.738735
     15          1           0        0.381638   -1.157608   -2.011341
     16          1           0        1.139062   -2.138926   -0.738725
     17          1           0       -1.405997   -2.159652   -0.295118
     18          1           0        0.423636   -2.160785    1.504753
     19          1           0       -0.890249   -1.149671    2.126139
     20          1           0        1.616746    0.000001    1.874910
     21          1           0        0.423646    2.160792    1.504742
     22          1           0       -0.890245    1.149687    2.126133
 ---------------------------------------------------------------------

 SCF Done:  E(RB3LYP) =  -524.637402813     A.U. after   14 cycles

 The electronic state is 1-A.
 Alpha  occ. eigenvalues --  -24.67591 -19.14153 -10.27518 -10.27087 -10.20452
 Alpha  occ. eigenvalues --  -10.20451 -10.20156 -10.19889 -10.19887 -10.19699
 Alpha  occ. eigenvalues --  -10.19698  -1.18321  -1.04019  -0.89637  -0.79974
 Alpha  occ. eigenvalues --   -0.75644  -0.72301  -0.67309  -0.61654  -0.61373
 Alpha  occ. eigenvalues --   -0.55682  -0.54098  -0.52098  -0.47621  -0.45711
 Alpha  occ. eigenvalues --   -0.45593  -0.45060  -0.42722  -0.42637  -0.41608
 Alpha  occ. eigenvalues --   -0.40266  -0.40151  -0.38328  -0.37817  -0.35007
 Alpha  occ. eigenvalues --   -0.34248  -0.32934  -0.32738  -0.30841  -0.30461
 Alpha  occ. eigenvalues --   -0.23968
 Alpha virt. eigenvalues --   -0.01890   0.06995   0.09105   0.11390   0.12400
 Alpha virt. eigenvalues --    0.13258   0.13951   0.13984   0.16133   0.16665
 Alpha virt. eigenvalues --    0.17365   0.17560   0.17870   0.19701   0.20069

 Mulliken charges:
               1
     1  O   -0.453033
     2  C    0.466796
     3  C   -0.193142
     4  C   -0.317898
     5  C    0.405885
     6  F   -0.342315
     7  C   -0.317898
     8  C   -0.193142
     9  C   -0.276103
    10  C   -0.163085
    11  C   -0.276103
    12  H    0.149510
    13  H    0.153806
    14  H    0.155967
    15  H    0.153806
    16  H    0.155966
    17  H    0.149510
    18  H    0.148818
    19  H    0.148731
    20  H    0.146376
    21  H    0.148818
    22  H    0.148731
 Sum of Mulliken charges =  -0.00000

 Dipole moment (field-independent basis, Debye):
    X=              1.3156    Y=              0.0000    Z=              1.1721  Tot=              1.7620
 Quadrupole moment (field-independent basis, Debye-Ang):
   XX=            -79.0652   YY=            -59.9107   ZZ=            -61.8055
   XY=              0.0000   XZ=             -1.7697   YZ=             -0.0000

  Exact polarizability:  88.549   0.000  85.810   2.181  -0.000  80.319
 Approx polarizability: 139.954   0.000 120.440   5.617   0.000 118.259

                      1                      2                      3
                      A                      A                      A
 Frequencies --    107.5431               211.6364               304.3250
 Red. masses --      8.1446                 2.9979                 4.1629
 Frc consts  --      0.0555                 0.0791                 0.2272
 IR Inten    --      4.8175                 1.8118                 1.7162

                      4                      5                      6
                      A                      A                      A
 Frequencies --    323.4770               393.1917               407.2245
 Red. masses --      3.6103                 2.9416                 8.4560
 Frc consts  --      0.2226                 0.2679                 0.8262
 IR Inten    --      3.5542                 0.9478                 0.6953

                      7                      8                      9
                      A                      A                      A
 Frequencies --    475.2009               477.1809               498.5582
 Red. masses --      3.9984                 2.2034                 1.9142
 Frc consts  --      0.5320                 0.2956                 0.2803
 IR Inten    --     11.1408                 0.9393                 0.8315

                     10                     11                     12
                      A                      A                      A
 Frequencies --    519.4132               608.0616               648.9864
 Red. masses --      3.6750                 6.0177                 3.7725
 Frc consts  --      0.5842                 1.3109                 0.9362
 IR Inten    --      0.5094                10.3651                 3.7675

                     13                     14                     15
                      A                      A                      A
 Frequencies --    677.2684               738.5423               819.7959
 Red. masses --      3.6986                 4.2720                 3.8938
 Frc consts  --      0.9996                 1.3729                 1.5418
 IR Inten    --      1.6101                 0.4349                 4.8259

                     16                     17                     18
                      A                      A                      A
 Frequencies --    852.1603               854.8519               907.7681
 Red. masses --      2.5061                 3.3752                 2.0325
 Frc consts  --      1.0722                 1.4532                 0.9868
 IR Inten    --      0.1653                 0.7011                 0.0184

                     19                     20                     21
                      A                      A                      A
 Frequencies --    918.6775               934.8148               937.1749
 Red. masses --      1.9769                 2.1726                 2.0091
 Frc consts  --      0.9830                 1.1186                 1.0397
 IR Inten    --      0.5658                 6.0751                 0.0771

                     22                     23                     24
                      A                      A                      A
 Frequencies --    970.0324               996.1834              1007.5911
 Red. masses --      2.1557                 1.9811                 1.7750
 Frc consts  --      1.1951                 1.1584                 1.0617
 IR Inten    --      2.5237                36.5594                 1.6963

                     25                     26                     27
                      A                      A                      A
 Frequencies --   1012.7695              1050.5449              1070.9847
 Red. masses --      2.0846                 1.4115                 1.7692
 Frc consts  --      1.2598                 0.9178                 1.1956
 IR Inten    --     12.5134                10.0176                11.2174

                     28                     29                     30
                      A                      A                      A
 Frequencies --   1093.0728              1101.1204              1140.6084
 Red. masses --      1.7121                 1.2227                 1.5823
 Frc consts  --      1.2053                 0.8735                 1.2128
 IR Inten    --     21.7993                 0.6251                 7.6540

                     31                     32                     33
                      A                      A                      A
 Frequencies --   1185.9524              1189.9051              1210.0026
 Red. masses --      1.7857                 1.7236                 2.1101
 Frc consts  --      1.4798                 1.4378                 1.8202
 IR Inten    --     21.1698                 0.8972                 0.1498

                     34                     35                     36
                      A                      A                      A
 Frequencies --   1238.7095              1244.6761              1265.4151
 Red. masses --      1.5134                 1.6561                 1.7995
 Frc consts  --      1.3682                 1.5117                 1.6977
 IR Inten    --      1.7038                21.5236                 3.4121

                     37                     38                     39
                      A                      A                      A
 Frequencies --   1279.8228              1282.2666              1321.9604
 Red. masses --      1.7067                 1.5850                 1.4568
 Frc consts  --      1.6470                 1.5354                 1.5000
 IR Inten    --     22.3717                 0.0025                 0.0157

                     40                     41                     42
                      A                      A                      A
 Frequencies --   1343.7968              1346.0790              1355.1412
 Red. masses --      1.7590                 1.6421                 1.6783
 Frc consts  --      1.8715                 1.7531                 1.8159
 IR Inten    --      6.8202                 0.9057                 0.0121

                     43                     44                     45
                      A                      A                      A
 Frequencies --   1355.6517              1377.2854              1510.8830
 Red. masses --      1.5848                 1.6464                 1.0925
 Frc consts  --      1.7160                 1.8401                 1.4694
 IR Inten    --     12.5357                24.5860                 0.3690

                     46                     47                     48
                      A                      A                      A
 Frequencies --   1532.9747              1535.2944              1554.5372
 Red. masses --      1.0981                 1.0967                 1.0953
 Frc consts  --      1.5205                 1.5231                 1.5595
 IR Inten    --      6.9196                 9.0647                 0.9969

                     49                     50                     51
                      A                      A                      A
 Frequencies --   1823.6294              3058.7737              3060.7631
 Red. masses --     11.5310                 1.0600                 1.0626
 Frc consts  --     22.5939                 5.8431                 5.8654
 IR Inten    --    214.3784                19.5265                33.3513

                     52                     53                     54
                      A                      A                      A
 Frequencies --   3065.5897              3069.1809              3101.2946
 Red. masses --      1.0594                 1.0613                 1.1065
 Frc consts  --      5.8658                 5.8904                 6.2702
 IR Inten    --     31.8420                16.3938                 8.8967

                     55                     56                     57
                      A                      A                      A
 Frequencies --   3109.5846              3112.1223              3119.9215
 Red. masses --      1.1032                 1.1073                 1.1050
 Frc consts  --      6.2852                 6.3188                 6.3371
 IR Inten    --     42.6804                13.8229                33.7858

                     58                     59                     60
                      A                      A                      A
 Frequencies --   3122.3228              3124.8866              3126.9269
 Red. masses --      1.0882                 1.0879                 1.0890
 Frc consts  --      6.2503                 6.2590                 6.2738
 IR Inten    --     30.1673                28.1779                11.4032

 - Thermochemistry -
 -------------------
 Temperature   298.150 Kelvin.  Pressure   1.00000 Atm.
 Atom     1 has atomic number  8 and mass  15.99491

 Molecular mass:   154.07939 amu.
 Principal axes and moments of inertia in atomic units:
                           1         2         3
     Eigenvalues --   962.663371621.754451716.77838
           X            1.00000   0.00000  -0.00283
           Y           -0.00000   1.00000  -0.00000
           Z            0.00283   0.00000   1.00000
 This molecule is an asymmetric top.
 Rotational symmetry number  1.
 Warning -- assumption of classical behavior for rotation
           may cause significant error
 Rotational temperatures (Kelvin)      0.08997     0.05341     0.05045
 Rotational constants (GHZ):           1.87474     1.11283     1.05124
 Zero-point vibrational energy     490972.0 (Joules/Mol)
                                  117.34513 (Kcal/Mol)
 Warning -- explicit consideration of  11 degrees of freedom as
           vibrations may cause significant error
 Vibrational temperatures:    154.73   304.50   437.86   465.41   565.72
          (Kelvin)            585.91   683.71   686.56   717.31   747.32
                              874.87   933.75   974.44  1062.60  1179.50
                             1226.07  1229.94  1306.08  1321.77  1344.99
                             1348.39  1395.66  1433.29  1449.70  1457.15
                             1511.50  1540.91  1572.69  1584.27  1641.08
                             1706.32  1712.01  1740.92  1782.23  1790.81
                             1820.65  1841.38  1844.90  1902.01  1933.42
                             1936.71  1949.75  1950.48  1981.61  2173.82
                             2205.61  2208.95  2236.63  2623.80  4400.89
                             4403.76  4410.70  4415.87  4462.07  4474.00
                             4477.65  4488.87  4492.33  4496.01  4498.95

 Zero-point correction=                           0.187001 (Hartree/Particle)
 Thermal correction to Energy=                    0.194820
 Thermal correction to Enthalpy=                  0.195765
 Thermal correction to Gibbs Free Energy=         0.154591
 Sum of electronic and zero-point Energies=           -524.450401
 Sum of electronic and thermal Energies=              -524.442582
 Sum of electronic and thermal Enthalpies=            -524.441638
 Sum of electronic and thermal Free Energies=         -524.482812

                     E (Thermal)             CV                S
                      KCal/Mol        Cal/Mol-Kelvin    Cal/Mol-Kelvin
 Total                  122.252             33.700             86.656
 Electronic               0.000              0.000              0.000
 Translational            0.889              2.981             41.007
 Rotational               0.889              2.981             29.373
 Vibrational            120.474             27.739             16.277
 Vibration     1          0.606              1.943              3.313
 Vibration     2          0.643              1.823              2.030
 Vibration     3          0.695              1.666              1.393
 Vibration     4          0.708              1.628              1.292
 Vibration     5          0.760              1.485              0.988
 Vibration     6          0.772              1.455              0.936
 Vibration     7          0.832              1.305              0.723
 Vibration     8          0.834              1.301              0.718
 Vibration     9          0.854              1.253              0.662
 Vibration    10          0.874              1.207              0.611
 Vibration    11          0.967              1.015              0.436

 Optimization completed.
    -- Stationary point found.
 Normal termination of Gaussian 16 at Thu Feb 22 10:30:06 2024.
