 Gaussian 16, Revision A.03,
 Gaussian 16:  EM64M-G16RevA.03 25-Dec-2016

 ---------------------
 # freq b3lyp/6-31g(d)
 ---------------------

 ---------
 good luck
 ---------
 Symbolic Z-matrix:
 Charge =  0 Multiplicity = 1

                         Standard orientation:
 ---------------------------------------------------------------------
 Center     Atomic      Atomic             Coordinates (Angstroms)
 Number     Number       Type             X           Y           Z
 ---------------------------------------------------------------------
      1          8           0       -3.454162   -0.000001   -0.974979
      2          6           0       -2.341033   -0.000000   -0.489818
      3          6           0       -1.574508    1.292340   -0.151047
      4          6           0       -0.174635    1.244033   -0.811558
      5          6           0        0.410777    0.000000   -0.117750
      6         35           0        2.397341   -0.000000   -0.133745
      7          6           0       -0.174635   -1.244033   -0.811558
      8          6           0       -1.574507   -1.292340   -0.151046
      9          6           0       -1.143924   -1.245128    1.335689
     10          6           0       -0.227966    0.000001    1.340665
     11          6           0       -1.143925    1.245128    1.335689
     12          1           0       -2.177440    2.159202   -0.432077
     13          1           0        0.377944    2.154337   -0.559162
     14          1           0       -0.185551    1.142127   -1.900899
     15          1           0       -0.185551   -1.142127   -1.900899
     16          1           0        0.377945   -2.154338   -0.559161
     17          1           0       -2.177439   -2.159202   -0.432076
     18          1           0       -1.978464   -1.151144    2.038373
     19          1           0       -0.596271   -2.161314    1.585514
     20          1           0        0.512062    0.000000    2.141809
     21          1           0       -1.978465    1.151143    2.038372
     22          1           0       -0.596273    2.161315    1.585513
 ---------------------------------------------------------------------

 SCF Done:  E(RB3LYP) =  -2996.51103570     A.U. after   14 cycles

 The electronic state is 1-A.
 Alpha  occ. eigenvalues -- -482.89873 -61.86053 -56.38121 -56.37729 -56.37728
 Alpha  occ. eigenvalues --  -19.14422 -10.27801 -10.25917 -10.21119 -10.20808
 Alpha  occ. eigenvalues --  -10.20806 -10.20609 -10.20608 -10.20284 -10.20283
 Alpha  occ. eigenvalues --   -8.57122  -6.52457  -6.51241  -6.51234  -2.64026
 Alpha  occ. eigenvalues --   -2.63686  -2.63681  -2.62711  -2.62711  -1.04300
 Alpha  occ. eigenvalues --   -0.90807  -0.80359  -0.78985  -0.75333  -0.70613
 Alpha  occ. eigenvalues --   -0.67673  -0.61855  -0.61618  -0.54745  -0.54066
 Alpha  occ. eigenvalues --   -0.49735  -0.47770  -0.45987  -0.45393  -0.44267
 Alpha  occ. eigenvalues --   -0.41594  -0.41310  -0.40570  -0.39635  -0.37050
 Alpha  occ. eigenvalues --   -0.35485  -0.35067  -0.34420  -0.33710  -0.33193
 Alpha  occ. eigenvalues --   -0.32587  -0.27353  -0.27102  -0.24231
 Alpha virt. eigenvalues --   -0.02201  -0.00617   0.08445   0.09285   0.11066
 Alpha virt. eigenvalues --    0.11954   0.13308   0.13479   0.14210   0.16163
 Alpha virt. eigenvalues --    0.16244   0.17063   0.17124   0.17736   0.19474

 Mulliken charges:
               1
     1  O   -0.452305
     2  C    0.469676
     3  C   -0.197270
     4  C   -0.272201
     5  C    0.026137
     6  Br  -0.159328
     7  C   -0.272201
     8  C   -0.197269
     9  C   -0.276093
    10  C   -0.118985
    11  C   -0.276093
    12  H    0.152773
    13  H    0.166318
    14  H    0.160352
    15  H    0.160352
    16  H    0.166318
    17  H    0.152773
    18  H    0.152095
    19  H    0.152756
    20  H    0.157343
    21  H    0.152094
    22  H    0.152756
 Sum of Mulliken charges =  -0.00000

 Dipole moment (field-independent basis, Debye):
    X=              0.5075    Y=              0.0000    Z=              1.4015  Tot=              1.4905
 Quadrupole moment (field-independent basis, Debye-Ang):
   XX=            -94.1319   YY=            -73.2815   ZZ=            -75.8993
   XY=             -0.0000   XZ=             -4.9877   YZ=             -0.0000

  Exact polarizability: 123.617  -0.000  93.695   1.629  -0.000  88.809
 Approx polarizability: 186.890  -0.000 138.966   7.401  -0.000 137.929

                      1                      2                      3
                      A                      A                      A
 Frequencies --     96.4885               156.0291               198.7795
 Red. masses --     10.5688                 4.1286                 4.2566
 Frc consts  --      0.0580                 0.0592                 0.0991
 IR Inten    --      4.7487                 1.7934                 0.1133

                      4                      5                      6
                      A                      A                      A
 Frequencies --    262.3013               280.5280               362.2226
 Red. masses --      9.7851                 2.8114                 2.4808
 Frc consts  --      0.3967                 0.1304                 0.1918
 IR Inten    --      3.5868                 0.4564                 0.5177

                      7                      8                      9
                      A                      A                      A
 Frequencies --    452.5382               460.5235               475.6177
 Red. masses --      4.5311                 2.1887                 3.9124
 Frc consts  --      0.5467                 0.2735                 0.5214
 IR Inten    --      8.0491                 0.6813                11.7162

                     10                     11                     12
                      A                      A                      A
 Frequencies --    513.0794               513.2560               649.8691
 Red. masses --      1.9853                 4.1243                 3.7563
 Frc consts  --      0.3079                 0.6401                 0.9347
 IR Inten    --      2.2315                 0.0421                 2.9543

                     13                     14                     15
                      A                      A                      A
 Frequencies --    681.3771               726.1624               808.8197
 Red. masses --      3.7786                 5.7120                 3.7333
 Frc consts  --      1.0336                 1.7746                 1.4390
 IR Inten    --      3.8697                 2.4902                 2.8792

                     16                     17                     18
                      A                      A                      A
 Frequencies --    846.4846               852.1078               882.0289
 Red. masses --      2.7898                 3.0209                 4.0365
 Frc consts  --      1.1778                 1.2923                 1.8502
 IR Inten    --      6.7447                 0.3877                36.2139

                     19                     20                     21
                      A                      A                      A
 Frequencies --    908.0576               916.8742               928.6475
 Red. masses --      1.8739                 2.2564                 2.2618
 Frc consts  --      0.9104                 1.1176                 1.1492
 IR Inten    --      0.0322                 0.2020                 5.2490

                     22                     23                     24
                      A                      A                      A
 Frequencies --    933.3883               984.0837               994.5166
 Red. masses --      2.0324                 1.9056                 2.0720
 Frc consts  --      1.0433                 1.0873                 1.2075
 IR Inten    --      0.0165                10.8953                28.7909

                     25                     26                     27
                      A                      A                      A
 Frequencies --   1007.1502              1027.5949              1054.3488
 Red. masses --      1.8294                 3.2359                 1.4160
 Frc consts  --      1.0933                 2.0132                 0.9274
 IR Inten    --      0.0558                 4.4993                 6.9990

                     28                     29                     30
                      A                      A                      A
 Frequencies --   1072.2033              1099.3383              1127.4711
 Red. masses --      1.8835                 1.3359                 1.5451
 Frc consts  --      1.2758                 0.9512                 1.1572
 IR Inten    --      3.4770                 4.6881                 1.9262

                     31                     32                     33
                      A                      A                      A
 Frequencies --   1167.5449              1189.3568              1197.2956
 Red. masses --      1.2458                 1.6559                 1.9530
 Frc consts  --      1.0006                 1.3801                 1.6495
 IR Inten    --      5.6723                 6.4483                 0.9096

                     34                     35                     36
                      A                      A                      A
 Frequencies --   1234.8309              1241.8016              1251.1083
 Red. masses --      1.3727                 1.5627                 1.6190
 Frc consts  --      1.2332                 1.4198                 1.4931
 IR Inten    --      4.7218                11.2841                10.8308

                     37                     38                     39
                      A                      A                      A
 Frequencies --   1266.6040              1280.4731              1322.2749
 Red. masses --      1.5060                 1.5628                 1.4081
 Frc consts  --      1.4235                 1.5097                 1.4506
 IR Inten    --      2.6104                 0.1910                 0.1421

                     40                     41                     42
                      A                      A                      A
 Frequencies --   1340.8089              1344.3306              1345.2123
 Red. masses --      1.7563                 1.4819                 1.5813
 Frc consts  --      1.8603                 1.5779                 1.6860
 IR Inten    --      1.3940                 0.6920                 4.1422

                     43                     44                     45
                      A                      A                      A
 Frequencies --   1356.5512              1371.6621              1511.2017
 Red. masses --      1.5906                 1.4588                 1.0894
 Frc consts  --      1.7246                 1.6172                 1.4658
 IR Inten    --      2.0978                 0.3512                 0.1496

                     46                     47                     48
                      A                      A                      A
 Frequencies --   1533.0436              1535.3582              1554.3965
 Red. masses --      1.0911                 1.0952                 1.0911
 Frc consts  --      1.5109                 1.5212                 1.5532
 IR Inten    --      7.9031                 9.7687                 0.0169

                     49                     50                     51
                      A                      A                      A
 Frequencies --   1824.4245              3061.5442              3063.9907
 Red. masses --     11.5083                 1.0599                 1.0625
 Frc consts  --     22.5691                 5.8530                 5.8770
 IR Inten    --    236.1562                25.7828                28.7776

                     52                     53                     54
                      A                      A                      A
 Frequencies --   3077.3770              3081.8484              3104.4035
 Red. masses --      1.0591                 1.0606                 1.1067
 Frc consts  --      5.9095                 5.9352                 6.2838
 IR Inten    --     14.7409                11.1406                 9.4233

                     55                     56                     57
                      A                      A                      A
 Frequencies --   3112.8401              3122.5086              3123.0144
 Red. masses --      1.1038                 1.1067                 1.0891
 Frc consts  --      6.3014                 6.3576                 6.2582
 IR Inten    --     40.1273                17.9350                18.7803

                     58                     59                     60
                      A                      A                      A
 Frequencies --   3124.6776              3130.0476              3139.9996
 Red. masses --      1.0882                 1.1068                 1.0888
 Frc consts  --      6.2597                 6.3887                 6.3250
 IR Inten    --     18.0173                25.1748                10.4413

 - Thermochemistry -
 -------------------
 Temperature   298.150 Kelvin.  Pressure   1.00000 Atm.
 Atom     1 has atomic number  8 and mass  15.99491

 Molecular mass:   213.99933 amu.
 Principal axes and moments of inertia in atomic units:
                           1         2         3
     Eigenvalues --   980.349383377.152653453.14383
           X            0.99998  -0.00000  -0.00640
           Y            0.00000   1.00000  -0.00000
           Z            0.00640   0.00000   0.99998
 This molecule is an asymmetric top.
 Rotational symmetry number  1.
 Warning -- assumption of classical behavior for rotation
           may cause significant error
 Rotational temperatures (Kelvin)      0.08835     0.02565     0.02508
 Rotational constants (GHZ):           1.84092     0.53440     0.52264
 Zero-point vibrational energy     486176.8 (Joules/Mol)
                                  116.19905 (Kcal/Mol)
 Warning -- explicit consideration of  11 degrees of freedom as
           vibrations may cause significant error
 Vibrational temperatures:    138.83   224.49   286.00   377.39   403.62
          (Kelvin)            521.16   651.10   662.59   684.31   738.21
                              738.46   935.02   980.35  1044.79  1163.71
                             1217.90  1225.99  1269.04  1306.49  1319.18
                             1336.12  1342.94  1415.88  1430.89  1449.06
                             1478.48  1516.97  1542.66  1581.70  1622.18
                             1679.84  1711.22  1722.64  1776.65  1786.68
                             1800.07  1822.36  1842.32  1902.46  1929.12
                             1934.19  1935.46  1951.77  1973.52  2174.28
                             2205.71  2209.04  2236.43  2624.94  4404.88
                             4408.40  4427.66  4434.09  4466.54  4478.68
                             4492.59  4493.32  4495.71  4503.44  4517.76

 Zero-point correction=                           0.185175 (Hartree/Particle)
 Thermal correction to Energy=                    0.193662
 Thermal correction to Enthalpy=                  0.194606
 Thermal correction to Gibbs Free Energy=         0.150812
 Sum of electronic and zero-point Energies=          -2996.325861
 Sum of electronic and thermal Energies=             -2996.317374
 Sum of electronic and thermal Enthalpies=           -2996.316430
 Sum of electronic and thermal Free Energies=        -2996.360224

                     E (Thermal)             CV                S
                      KCal/Mol        Cal/Mol-Kelvin    Cal/Mol-Kelvin
 Total                  121.525             35.073             92.173
 Electronic               0.000              0.000              0.000
 Translational            0.889              2.981             41.986
 Rotational               0.889              2.981             30.814
 Vibrational            119.747             29.111             19.372
 Vibration     1          0.603              1.952              3.524
 Vibration     2          0.620              1.896              2.597
 Vibration     3          0.637              1.842              2.144
 Vibration     4          0.670              1.742              1.646
 Vibration     5          0.680              1.710              1.530
 Vibration     6          0.736              1.550              1.113
 Vibration     7          0.811              1.355              0.788
 Vibration     8          0.818              1.338              0.765
 Vibration     9          0.832              1.304              0.722
 Vibration    10          0.868              1.221              0.626
 Vibration    11          0.868              1.221              0.626

 Normal termination of Gaussian 16 at Sat Feb 24 00:02:14 2024.
