 Gaussian 16, Revision A.03,
 Gaussian 16:  EM64M-G16RevA.03 25-Dec-2016

 ---------------------
 # freq b3lyp/6-31g(d)
 ---------------------

 ---------
 good luck
 ---------
 Symbolic Z-matrix:
 Charge =  0 Multiplicity = 1

                         Standard orientation:
 ---------------------------------------------------------------------
 Center     Atomic      Atomic             Coordinates (Angstroms)
 Number     Number       Type             X           Y           Z
 ---------------------------------------------------------------------
      1          8           0       -2.644912   -2.224700   -0.000036
      2          6           0       -1.960571   -1.219718   -0.000018
      3          6           0       -1.487479   -0.514357    1.268181
      4          6           0        0.060518   -0.473554    1.260397
      5          6           0       -2.046813    0.930395    1.258249
      6          6           0       -1.548004    1.668911    0.000104
      7          6           0       -2.046926    0.930517   -1.258069
      8          6           0       -1.487593   -0.514233   -1.268191
      9          6           0        0.060405   -0.473431   -1.260543
     10          6           0        0.566251    0.281071   -0.000059
     11          6           0        2.091885    0.335390   -0.000126
     12          8           0        2.759848    1.347414   -0.000011
     13          8           0        2.635737   -0.904837   -0.000036
     14          6           0        4.072177   -0.949571    0.000057
     15          6           0       -0.007563    1.715118    0.000037
     16          1           0       -1.852617   -1.075202    2.134486
     17          1           0        0.469764   -1.489317    1.277114
     18          1           0        0.414593    0.034207    2.167785
     19          1           0       -1.717715    1.453770    2.166059
     20          1           0       -3.144100    0.908475    1.280103
     21          1           0       -1.939568    2.694035    0.000171
     22          1           0       -3.144215    0.908599   -1.279825
     23          1           0       -1.717910    1.453982   -2.165856
     24          1           0       -1.852809   -1.074994   -2.134518
     25          1           0        0.414398    0.034418   -2.167913
     26          1           0        0.469649   -1.489193   -1.277397
     27          1           0        4.471724   -0.455044   -0.889280
     28          1           0        4.471612   -0.454933    0.889385
     29          1           0        4.331787   -2.008571    0.000140
     30          1           0        0.361106    2.258800   -0.877756
     31          1           0        0.361185    2.258715    0.877849
 ---------------------------------------------------------------------

 SCF Done:  E(RB3LYP) =  -692.609116533     A.U. after   14 cycles

 The electronic state is 1-A.
 Alpha  occ. eigenvalues --  -19.19688 -19.13993 -19.13469 -10.31473 -10.26591
 Alpha  occ. eigenvalues --  -10.24467 -10.21587 -10.19886 -10.19885 -10.19750
 Alpha  occ. eigenvalues --  -10.19748 -10.19703 -10.19338 -10.19337 -10.18572
 Alpha  occ. eigenvalues --   -1.10515  -1.03301  -1.01660  -0.88089  -0.79584
 Alpha  occ. eigenvalues --   -0.78438  -0.76576  -0.72859  -0.68230  -0.65076
 Alpha  occ. eigenvalues --   -0.61948  -0.60778  -0.58052  -0.55878  -0.52489
 Alpha  occ. eigenvalues --   -0.48892  -0.48519  -0.47389  -0.46357  -0.45976
 Alpha  occ. eigenvalues --   -0.44726  -0.44399  -0.44240  -0.42438  -0.41377
 Alpha  occ. eigenvalues --   -0.40845  -0.40619  -0.40108  -0.38808  -0.36654
 Alpha  occ. eigenvalues --   -0.36578  -0.36188  -0.34522  -0.34171  -0.33952
 Alpha  occ. eigenvalues --   -0.31506  -0.30856  -0.30394  -0.29969  -0.26984
 Alpha  occ. eigenvalues --   -0.23231
 Alpha virt. eigenvalues --   -0.01184   0.00601   0.06591   0.10684   0.11343
 Alpha virt. eigenvalues --    0.11630   0.12155   0.12964   0.13466   0.13477
 Alpha virt. eigenvalues --    0.14380   0.15159   0.15931   0.16171   0.16808

 Mulliken charges:
               1
     1  O   -0.457367
     2  C    0.455107
     3  C   -0.168897
     4  C   -0.295294
     5  C   -0.281179
     6  C   -0.102286
     7  C   -0.281179
     8  C   -0.168895
     9  C   -0.295299
    10  C   -0.023026
    11  C    0.633232
    12  O   -0.485817
    13  O   -0.461385
    14  C   -0.218447
    15  C   -0.265022
    16  H    0.145892
    17  H    0.165310
    18  H    0.145447
    19  H    0.140273
    20  H    0.145860
    21  H    0.129959
    22  H    0.145860
    23  H    0.140273
    24  H    0.145891
    25  H    0.145447
    26  H    0.165306
    27  H    0.171205
    28  H    0.171208
    29  H    0.166278
    30  H    0.145771
    31  H    0.145773
 Sum of Mulliken charges =  -0.00000

 Dipole moment (field-independent basis, Debye):
    X=              1.3925    Y=              0.9397    Z=              0.0000  Tot=              1.6799
 Quadrupole moment (field-independent basis, Debye-Ang):
   XX=            -89.6807   YY=            -97.0975   ZZ=            -84.2933
   XY=            -16.1336   XZ=             -0.0001   YZ=             -0.0003

  Exact polarizability: 136.462   1.122 119.895   0.001  -0.000 107.723
 Approx polarizability: 178.044  14.469 192.794   0.001   0.001 160.707

                      1                      2                      3
                      A                      A                      A
 Frequencies --     34.0663                82.2378               100.3687
 Red. masses --      6.1615                 8.8108                 2.8457
 Frc consts  --      0.0042                 0.0351                 0.0169
 IR Inten    --      1.9119                 3.6318                 0.3646

                      4                      5                      6
                      A                      A                      A
 Frequencies --    135.1269               153.2161               211.0782
 Red. masses --      1.1153                 3.9303                 3.5487
 Frc consts  --      0.0120                 0.0544                 0.0932
 IR Inten    --      0.0336                 1.4547                 5.0108

                      7                      8                      9
                      A                      A                      A
 Frequencies --    275.2694               282.3348               304.6196
 Red. masses --      2.3484                 4.0070                 2.5650
 Frc consts  --      0.1048                 0.1882                 0.1402
 IR Inten    --      1.2798                 5.0214                 2.2494

                     10                     11                     12
                      A                      A                      A
 Frequencies --    315.6215               355.7054               385.9160
 Red. masses --      4.2453                 5.9486                 2.7801
 Frc consts  --      0.2492                 0.4435                 0.2439
 IR Inten    --      4.7005                 4.9137                 4.9789

                     13                     14                     15
                      A                      A                      A
 Frequencies --    396.3777               434.1980               435.3718
 Red. masses --      4.9501                 1.7927                 1.9216
 Frc consts  --      0.4582                 0.1991                 0.2146
 IR Inten    --      0.1640                 1.0040                 0.0983

                     16                     17                     18
                      A                      A                      A
 Frequencies --    466.7876               485.3404               616.3690
 Red. masses --      4.3994                 3.8476                 5.3413
 Frc consts  --      0.5648                 0.5340                 1.1956
 IR Inten    --      8.7973                 4.3418                 0.1984

                     19                     20                     21
                      A                      A                      A
 Frequencies --    634.4763               667.1418               715.8956
 Red. masses --      3.5319                 5.2286                 3.9885
 Frc consts  --      0.8377                 1.3711                 1.2044
 IR Inten    --      2.6092                 3.6133                 2.1636

                     22                     23                     24
                      A                      A                      A
 Frequencies --    750.5367               783.5490               791.2066
 Red. masses --      7.5700                 4.1705                 3.8135
 Frc consts  --      2.5124                 1.5086                 1.4066
 IR Inten    --      5.5521                 3.6063                 5.0827

                     25                     26                     27
                      A                      A                      A
 Frequencies --    807.0221               861.3146               893.7410
 Red. masses --      2.9791                 2.6966                 3.7297
 Frc consts  --      1.1432                 1.1787                 1.7553
 IR Inten    --      0.4896                 0.1891                 3.5089

                     28                     29                     30
                      A                      A                      A
 Frequencies --    895.8148               905.9271               912.6885
 Red. masses --      1.6060                 1.5673                 2.3618
 Frc consts  --      0.7593                 0.7579                 1.1591
 IR Inten    --      1.9618                 0.4415                 8.6482

                     31                     32                     33
                      A                      A                      A
 Frequencies --    958.4105               975.1331               986.6480
 Red. masses --      2.3002                 2.5132                 2.3037
 Frc consts  --      1.2449                 1.4080                 1.3213
 IR Inten    --      0.0140                 3.0025                 2.8651

                     34                     35                     36
                      A                      A                      A
 Frequencies --   1017.2050              1018.6746              1053.7004
 Red. masses --      4.0367                 2.0814                 2.3707
 Frc consts  --      2.4609                 1.2726                 1.5508
 IR Inten    --      7.5945                 4.0360                 0.4770

                     37                     38                     39
                      A                      A                      A
 Frequencies --   1065.3928              1078.5663              1096.8199
 Red. masses --      2.0032                 1.8693                 1.8422
 Frc consts  --      1.3396                 1.2812                 1.3058
 IR Inten    --      3.7027                26.1114                15.1402

                     40                     41                     42
                      A                      A                      A
 Frequencies --   1106.5367              1127.3968              1134.5688
 Red. masses --      3.2879                 1.6610                 1.2445
 Frc consts  --      2.3719                 1.2439                 0.9439
 IR Inten    --     48.2330                42.6171                 0.1869

                     43                     44                     45
                      A                      A                      A
 Frequencies --   1161.5855              1184.9627              1208.3215
 Red. masses --      1.1121                 1.2747                 1.1923
 Frc consts  --      0.8841                 1.0545                 1.0256
 IR Inten    --      0.0717                 0.9054                31.3315

                     46                     47                     48
                      A                      A                      A
 Frequencies --   1219.5308              1239.4743              1265.4319
 Red. masses --      1.5089                 1.9434                 2.4578
 Frc consts  --      1.3222                 1.7591                 2.3189
 IR Inten    --      6.7131                 8.9983               227.4453

                     49                     50                     51
                      A                      A                      A
 Frequencies --   1267.9548              1289.3856              1295.7609
 Red. masses --      1.5175                 2.4883                 1.3912
 Frc consts  --      1.4374                 2.4374                 1.3762
 IR Inten    --      5.8146                99.4696                 0.0055

                     52                     53                     54
                      A                      A                      A
 Frequencies --   1308.6617              1326.1325              1341.3609
 Red. masses --      1.6746                 1.5761                 1.5745
 Frc consts  --      1.6897                 1.6331                 1.6691
 IR Inten    --     18.2299                 4.9690                 7.7997

                     55                     56                     57
                      A                      A                      A
 Frequencies --   1357.1898              1358.4489              1379.0677
 Red. masses --      1.7544                 1.4296                 1.6607
 Frc consts  --      1.9040                 1.5544                 1.8609
 IR Inten    --      8.2125                 1.5795                 2.3022

                     58                     59                     60
                      A                      A                      A
 Frequencies --   1389.4268              1392.8302              1398.5509
 Red. masses --      1.4774                 1.5063                 1.5329
 Frc consts  --      1.6804                 1.7217                 1.7665
 IR Inten    --      0.0193                 2.7265                 3.0560

                     61                     62                     63
                      A                      A                      A
 Frequencies --   1410.4197              1491.6109              1510.4617
 Red. masses --      1.4777                 1.1963                 1.0844
 Frc consts  --      1.7319                 1.5683                 1.4577
 IR Inten    --      1.2603                 5.5233                 0.3973

                     64                     65                     66
                      A                      A                      A
 Frequencies --   1511.7565              1512.6354              1524.4969
 Red. masses --      1.0878                 1.0484                 1.0906
 Frc consts  --      1.4647                 1.4134                 1.4934
 IR Inten    --      5.9799                 5.7665                10.8941

                     67                     68                     69
                      A                      A                      A
 Frequencies --   1524.5598              1526.1081              1543.4288
 Red. masses --      1.0505                 1.0896                 1.0898
 Frc consts  --      1.4386                 1.4952                 1.5295
 IR Inten    --      6.2363                11.0235                 1.4912

                     70                     71                     72
                      A                      A                      A
 Frequencies --   1813.9915              1822.4642              3035.3216
 Red. masses --     11.8463                11.2604                 1.0642
 Frc consts  --     22.9670                22.0355                 5.7769
 IR Inten    --    230.2537               188.7591                12.0330

                     73                     74                     75
                      A                      A                      A
 Frequencies --   3035.4716              3041.2906              3042.9310
 Red. masses --      1.0597                 1.0647                 1.0658
 Frc consts  --      5.7531                 5.8020                 5.8145
 IR Inten    --     26.7561                45.7399                 7.1186

                     76                     77                     78
                      A                      A                      A
 Frequencies --   3051.2639              3063.8326              3073.8307
 Red. masses --      1.0734                 1.0699                 1.1054
 Frc consts  --      5.8882                 5.9174                 6.1536
 IR Inten    --     33.9532                64.6929                 9.3948

                     79                     80                     81
                      A                      A                      A
 Frequencies --   3075.2876              3077.7639              3089.7623
 Red. masses --      1.0296                 1.1040                 1.0871
 Frc consts  --      5.7373                 6.1614                 6.1148
 IR Inten    --     39.5531                50.9528                40.2376

                     82                     83                     84
                      A                      A                      A
 Frequencies --   3091.5801              3095.7793              3099.2081
 Red. masses --      1.0876                 1.1033                 1.1001
 Frc consts  --      6.1248                 6.2297                 6.2258
 IR Inten    --     13.5698                25.6003                 4.5531

                     85                     86                     87
                      A                      A                      A
 Frequencies --   3102.8184              3149.9825              3181.8934
 Red. masses --      1.0977                 1.1075                 1.1072
 Frc consts  --      6.2266                 6.4748                 6.6048
 IR Inten    --     33.0550                19.9350                15.7700

 - Thermochemistry -
 -------------------
 Temperature   298.150 Kelvin.  Pressure   1.00000 Atm.
 Atom     1 has atomic number  8 and mass  15.99491

 Molecular mass:   208.10994 amu.
 Principal axes and moments of inertia in atomic units:
                           1         2         3
     Eigenvalues --  1570.858483853.767154334.94160
           X            0.99928  -0.03792   0.00000
           Y            0.03792   0.99928  -0.00000
           Z           -0.00000   0.00000   1.00000
 This molecule is an asymmetric top.
 Rotational symmetry number  1.
 Warning -- assumption of classical behavior for rotation
           may cause significant error
 Rotational temperatures (Kelvin)      0.05514     0.02248     0.01998
 Rotational constants (GHZ):           1.14889     0.46831     0.41632
 Zero-point vibrational energy     703358.8 (Joules/Mol)
                                  168.10678 (Kcal/Mol)
 Warning -- explicit consideration of  18 degrees of freedom as
           vibrations may cause significant error
 Vibrational temperatures:     49.01   118.32   144.41   194.42   220.44
          (Kelvin)            303.69   396.05   406.22   438.28   454.11
                              511.78   555.25   570.30   624.71   626.40
                              671.60   698.30   886.82   912.87   959.87
                             1030.01  1079.85  1127.35  1138.37  1161.12
                             1239.24  1285.89  1288.88  1303.43  1313.16
                             1378.94  1403.00  1419.57  1463.53  1465.65
                             1516.04  1532.86  1551.82  1578.08  1592.06
                             1622.07  1632.39  1671.26  1704.90  1738.51
                             1754.63  1783.33  1820.67  1824.30  1855.14
                             1864.31  1882.87  1908.01  1929.92  1952.69
                             1954.50  1984.17  1999.08  2003.97  2012.20
                             2029.28  2146.10  2173.22  2175.08  2176.35
                             2193.41  2193.50  2195.73  2220.65  2609.93
                             2622.12  4367.15  4367.37  4375.74  4378.10
                             4390.09  4408.17  4422.56  4424.65  4428.22
                             4445.48  4448.09  4454.14  4459.07  4464.26
                             4532.12  4578.03

 Zero-point correction=                           0.267895 (Hartree/Particle)
 Thermal correction to Energy=                    0.280456
 Thermal correction to Enthalpy=                  0.281401
 Thermal correction to Gibbs Free Energy=         0.228837
 Sum of electronic and zero-point Energies=           -692.341221
 Sum of electronic and thermal Energies=              -692.328660
 Sum of electronic and thermal Enthalpies=            -692.327716
 Sum of electronic and thermal Free Energies=         -692.380280

                     E (Thermal)             CV                S
                      KCal/Mol        Cal/Mol-Kelvin    Cal/Mol-Kelvin
 Total                  175.989             50.474            110.630
 Electronic               0.000              0.000              0.000
 Translational            0.889              2.981             41.903
 Rotational               0.889              2.981             31.640
 Vibrational            174.212             44.512             37.087
 Vibration     1          0.594              1.983              5.577
 Vibration     2          0.600              1.961              3.837
 Vibration     3          0.604              1.949              3.447
 Vibration     4          0.613              1.918              2.872
 Vibration     5          0.619              1.899              2.632
 Vibration     6          0.643              1.824              2.034
 Vibration     7          0.677              1.719              1.563
 Vibration     8          0.681              1.706              1.519
 Vibration     9          0.696              1.665              1.391
 Vibration    10          0.703              1.644              1.333
 Vibration    11          0.731              1.564              1.141
 Vibration    12          0.755              1.500              1.016
 Vibration    13          0.763              1.478              0.976
 Vibration    14          0.795              1.396              0.845
 Vibration    15          0.796              1.393              0.841
 Vibration    16          0.824              1.324              0.747
 Vibration    17          0.841              1.283              0.696
 Vibration    18          0.976              0.997              0.422

 Normal termination of Gaussian 16 at Sat Feb 24 00:55:16 2024.
