 Gaussian 16, Revision A.03,
 Gaussian 16:  EM64M-G16RevA.03 25-Dec-2016

 ---------------------
 # freq b3lyp/6-31g(d)
 ---------------------

 ---------
 good luck
 ---------
 Symbolic Z-matrix:
 Charge =  0 Multiplicity = 1

                         Standard orientation:
 ---------------------------------------------------------------------
 Center     Atomic      Atomic             Coordinates (Angstroms)
 Number     Number       Type             X           Y           Z
 ---------------------------------------------------------------------
      1          8           0        3.074206   -1.502158   -1.038049
      2          6           0        2.202363   -0.796694   -0.568322
      3          6           0        1.446679    0.262375   -1.367426
      4          6           0       -0.065014   -0.068330   -1.326297
      5          6           0        1.692118    1.640080   -0.702029
      6          6           0        1.205645    1.602944    0.760639
      7          6           0        1.989616    0.524528    1.534249
      8          6           0        1.744796   -0.861579    0.885880
      9          6           0        0.232070   -1.187924    0.915387
     10          6           0       -0.560737   -0.108201    0.145657
     11          6           0       -2.049982   -0.437523    0.193044
     12          8           0       -2.545989   -1.375123    0.780685
     13          8           0       -2.782377    0.461126   -0.507607
     14          6           0       -4.200828    0.229756   -0.513564
     15          6           0       -0.301256    1.279126    0.796727
     16          1           0        1.815588    0.249801   -2.397949
     17          1           0       -0.251279   -1.036962   -1.808429
     18          1           0       -0.623825    0.686698   -1.890301
     19          1           0        2.759702    1.892043   -0.742351
     20          1           0        1.156920    2.416535   -1.265120
     21          1           0        1.373368    2.582642    1.226245
     22          1           0        3.062176    0.758114    1.532626
     23          1           0        1.668552    0.495775    2.584192
     24          1           0        2.318040   -1.642097    1.395817
     25          1           0       -0.116955   -1.239218    1.953266
     26          1           0        0.042558   -2.173606    0.475381
     27          1           0       -4.626111    1.034479   -1.114040
     28          1           0       -4.429195   -0.743230   -0.956481
     29          1           0       -4.598629    0.257133    0.504328
     30          1           0       -0.870757    2.048969    0.263914
     31          1           0       -0.659692    1.270818    1.835006
 ---------------------------------------------------------------------

 SCF Done:  E(RB3LYP) =  -692.608974511     A.U. after   14 cycles

 The electronic state is 1-A.
 Alpha  occ. eigenvalues --  -19.19718 -19.14002 -19.13346 -10.31484 -10.26457
 Alpha  occ. eigenvalues --  -10.24509 -10.21596 -10.20000 -10.19855 -10.19725
 Alpha  occ. eigenvalues --  -10.19477 -10.19465 -10.19421 -10.19345 -10.19090
 Alpha  occ. eigenvalues --   -1.10532  -1.03173  -1.01674  -0.88104  -0.79542
 Alpha  occ. eigenvalues --   -0.78308  -0.76889  -0.72760  -0.68029  -0.65461
 Alpha  occ. eigenvalues --   -0.61936  -0.60620  -0.57958  -0.55965  -0.52559
 Alpha  occ. eigenvalues --   -0.48952  -0.48449  -0.47762  -0.46294  -0.45714
 Alpha  occ. eigenvalues --   -0.44779  -0.44419  -0.43924  -0.42398  -0.41928
 Alpha  occ. eigenvalues --   -0.40989  -0.40582  -0.39850  -0.38403  -0.36872
 Alpha  occ. eigenvalues --   -0.36659  -0.36159  -0.34383  -0.34115  -0.33923
 Alpha  occ. eigenvalues --   -0.31794  -0.30934  -0.30485  -0.30010  -0.26910
 Alpha  occ. eigenvalues --   -0.23085
 Alpha virt. eigenvalues --   -0.01051   0.00574   0.06534   0.10696   0.11566
 Alpha virt. eigenvalues --    0.11742   0.11850   0.12708   0.13238   0.13395
 Alpha virt. eigenvalues --    0.14165   0.15248   0.15777   0.16500   0.17165

 Mulliken charges:
               1
     1  O   -0.457597
     2  C    0.455326
     3  C   -0.169252
     4  C   -0.294634
     5  C   -0.281644
     6  C   -0.097613
     7  C   -0.281315
     8  C   -0.173516
     9  C   -0.279082
    10  C   -0.023934
    11  C    0.634893
    12  O   -0.485330
    13  O   -0.462494
    14  C   -0.218433
    15  C   -0.281543
    16  H    0.145858
    17  H    0.152019
    18  H    0.158490
    19  H    0.146778
    20  H    0.139826
    21  H    0.129838
    22  H    0.145925
    23  H    0.140398
    24  H    0.146027
    25  H    0.153061
    26  H    0.158139
    27  H    0.164772
    28  H    0.172195
    29  H    0.171264
    30  H    0.151791
    31  H    0.139784
 Sum of Mulliken charges =  -0.00000

 Dipole moment (field-independent basis, Debye):
    X=             -2.1620    Y=              3.3292    Z=              0.2744  Tot=              3.9791
 Quadrupole moment (field-independent basis, Debye-Ang):
   XX=            -91.2307   YY=            -92.5609   ZZ=            -87.6025
   XY=              2.5334   XZ=              8.5806   YZ=             -0.1798

  Exact polarizability: 138.712  -3.226 113.876   0.091  -2.486 111.207
 Approx polarizability: 181.284  -7.676 179.560  -6.039  -6.583 169.906

                      1                      2                      3
                      A                      A                      A
 Frequencies --     32.8160                80.4135               112.0894
 Red. masses --      6.1384                 6.1560                 3.2845
 Frc consts  --      0.0039                 0.0235                 0.0243
 IR Inten    --      0.8924                 1.7894                 1.8579

                      4                      5                      6
                      A                      A                      A
 Frequencies --    133.5799               137.5286               223.2137
 Red. masses --      1.7349                 1.7323                 3.8812
 Frc consts  --      0.0182                 0.0193                 0.1139
 IR Inten    --      0.6301                 0.7444                 4.3071

                      7                      8                      9
                      A                      A                      A
 Frequencies --    268.2511               275.6946               305.5883
 Red. masses --      2.7980                 2.3737                 4.8900
 Frc consts  --      0.1186                 0.1063                 0.2690
 IR Inten    --      1.9539                 2.0886                 0.6052

                     10                     11                     12
                      A                      A                      A
 Frequencies --    327.1116               363.1141               375.2387
 Red. masses --      3.4448                 4.4354                 3.5285
 Frc consts  --      0.2172                 0.3446                 0.2927
 IR Inten    --     12.6439                 4.6833                 0.2999

                     13                     14                     15
                      A                      A                      A
 Frequencies --    388.8117               428.9809               446.1374
 Red. masses --      3.2019                 2.1764                 1.8207
 Frc consts  --      0.2852                 0.2360                 0.2135
 IR Inten    --      0.5992                 1.5678                 0.8445

                     16                     17                     18
                      A                      A                      A
 Frequencies --    456.7408               498.0684               615.7454
 Red. masses --      3.9267                 3.8810                 5.3037
 Frc consts  --      0.4826                 0.5672                 1.1848
 IR Inten    --      9.6097                 2.8702                 0.9076

                     19                     20                     21
                      A                      A                      A
 Frequencies --    636.8437               665.8537               716.1621
 Red. masses --      3.5577                 5.2531                 4.0257
 Frc consts  --      0.8501                 1.3722                 1.2165
 IR Inten    --      2.9085                 3.6483                 2.4866

                     22                     23                     24
                      A                      A                      A
 Frequencies --    744.1799               781.0954               793.2895
 Red. masses --      7.0251                 4.1042                 3.9545
 Frc consts  --      2.2922                 1.4753                 1.4663
 IR Inten    --      4.7464                 2.3818                 4.9253

                     25                     26                     27
                      A                      A                      A
 Frequencies --    811.4070               857.2734               891.9619
 Red. masses --      2.9831                 2.6822                 3.5660
 Frc consts  --      1.1572                 1.1614                 1.6716
 IR Inten    --      1.4517                 1.6942                 6.5834

                     28                     29                     30
                      A                      A                      A
 Frequencies --    901.6316               904.2541               919.3386
 Red. masses --      1.5856                 1.5764                 2.4455
 Frc consts  --      0.7594                 0.7594                 1.2178
 IR Inten    --      2.2490                 0.5872                 5.3347

                     31                     32                     33
                      A                      A                      A
 Frequencies --    952.9279               980.8606               984.0518
 Red. masses --      2.3669                 2.3323                 2.3481
 Frc consts  --      1.2663                 1.3220                 1.3397
 IR Inten    --      1.7325                 7.1096                 1.9165

                     34                     35                     36
                      A                      A                      A
 Frequencies --   1008.3669              1026.7999              1048.0043
 Red. masses --      3.5851                 2.4340                 2.2104
 Frc consts  --      2.1478                 1.5120                 1.4303
 IR Inten    --      3.8611                 6.4007                 0.5485

                     37                     38                     39
                      A                      A                      A
 Frequencies --   1074.3987              1077.6907              1091.9664
 Red. masses --      1.9118                 1.8890                 1.8729
 Frc consts  --      1.3003                 1.2926                 1.3158
 IR Inten    --      6.4172                21.6608                 3.8922

                     40                     41                     42
                      A                      A                      A
 Frequencies --   1108.1782              1124.3899              1138.9038
 Red. masses --      3.6212                 1.6310                 1.2377
 Frc consts  --      2.6201                 1.2149                 0.9459
 IR Inten    --     76.2718                15.3166                 2.2309

                     43                     44                     45
                      A                      A                      A
 Frequencies --   1161.3537              1184.8953              1209.0253
 Red. masses --      1.1239                 1.2744                 1.1456
 Frc consts  --      0.8931                 1.0542                 0.9867
 IR Inten    --      1.6146                 0.9594                 1.1536

                     46                     47                     48
                      A                      A                      A
 Frequencies --   1219.5128              1238.2711              1261.9155
 Red. masses --      1.5047                 2.0971                 2.3136
 Frc consts  --      1.3185                 1.8945                 2.1707
 IR Inten    --      7.4043                39.2435               209.6499

                     49                     50                     51
                      A                      A                      A
 Frequencies --   1271.3578              1281.8519              1301.0629
 Red. masses --      1.6464                 1.9364                 1.5105
 Frc consts  --      1.5679                 1.8747                 1.5065
 IR Inten    --     27.0252                85.1923                 0.9220

                     52                     53                     54
                      A                      A                      A
 Frequencies --   1312.6768              1329.3292              1343.1027
 Red. masses --      1.7072                 1.6243                 1.7511
 Frc consts  --      1.7332                 1.6912                 1.8612
 IR Inten    --     24.9725                 3.3522                16.1295

                     55                     56                     57
                      A                      A                      A
 Frequencies --   1351.8448              1359.0061              1380.2084
 Red. masses --      1.5111                 1.4843                 1.6324
 Frc consts  --      1.6270                 1.6151                 1.8321
 IR Inten    --      1.1886                 4.6121                 2.2291

                     58                     59                     60
                      A                      A                      A
 Frequencies --   1387.2370              1394.7457              1399.3187
 Red. masses --      1.4926                 1.5060                 1.5627
 Frc consts  --      1.6924                 1.7261                 1.8029
 IR Inten    --      0.0836                 2.4380                 3.1205

                     61                     62                     63
                      A                      A                      A
 Frequencies --   1409.1950              1491.5925              1508.3270
 Red. masses --      1.4572                 1.1968                 1.0839
 Frc consts  --      1.7050                 1.5689                 1.4528
 IR Inten    --      1.7687                 5.5384                 0.2638

                     64                     65                     66
                      A                      A                      A
 Frequencies --   1512.4609              1516.2377              1521.6912
 Red. masses --      1.0483                 1.0860                 1.0909
 Frc consts  --      1.4129                 1.4710                 1.4884
 IR Inten    --      5.7530                 3.5680                10.1871

                     67                     68                     69
                      A                      A                      A
 Frequencies --   1524.7351              1526.0686              1544.2917
 Red. masses --      1.0487                 1.0926                 1.0905
 Frc consts  --      1.4364                 1.4992                 1.5323
 IR Inten    --     10.6335                 9.5099                 1.8778

                     70                     71                     72
                      A                      A                      A
 Frequencies --   1813.5614              1822.5378              3034.8652
 Red. masses --     11.8118                11.2952                 1.0654
 Frc consts  --     22.8892                22.1053                 5.7815
 IR Inten    --    193.3650               225.7890                 8.3346

                     73                     74                     75
                      A                      A                      A
 Frequencies --   3035.7505              3039.3291              3046.9415
 Red. masses --      1.0601                 1.0648                 1.0631
 Frc consts  --      5.7561                 5.7954                 5.8149
 IR Inten    --     32.2620                20.1003                26.2917

                     76                     77                     78
                      A                      A                      A
 Frequencies --   3056.1232              3061.5930              3074.0744
 Red. masses --      1.0790                 1.0621                 1.1052
 Frc consts  --      5.9377                 5.8657                 6.1533
 IR Inten    --     82.1571                14.9421                 9.0652

                     79                     80                     81
                      A                      A                      A
 Frequencies --   3075.3258              3077.9994              3091.0063
 Red. masses --      1.0295                 1.1040                 1.0882
 Frc consts  --      5.7369                 6.1628                 6.1255
 IR Inten    --     40.3067                49.3075                33.3660

                     82                     83                     84
                      A                      A                      A
 Frequencies --   3092.5856              3094.0711              3097.9501
 Red. masses --      1.0997                 1.0871                 1.0996
 Frc consts  --      6.1971                 6.1317                 6.2180
 IR Inten    --      2.8813                36.4851                29.1829

                     85                     86                     87
                      A                      A                      A
 Frequencies --   3100.9536              3150.2856              3181.0906
 Red. masses --      1.1049                 1.1076                 1.1073
 Frc consts  --      6.2599                 6.4761                 6.6019
 IR Inten    --     21.3919                19.6659                16.3247

 - Thermochemistry -
 -------------------
 Temperature   298.150 Kelvin.  Pressure   1.00000 Atm.
 Atom     1 has atomic number  8 and mass  15.99491

 Molecular mass:   208.10994 amu.
 Principal axes and moments of inertia in atomic units:
                           1         2         3
     Eigenvalues --  1485.360054105.808344250.77712
           X            0.99983   0.00875   0.01639
           Y           -0.00798   0.99888  -0.04665
           Z           -0.01678   0.04651   0.99878
 This molecule is an asymmetric top.
 Rotational symmetry number  1.
 Warning -- assumption of classical behavior for rotation
           may cause significant error
 Rotational temperatures (Kelvin)      0.05831     0.02110     0.02038
 Rotational constants (GHZ):           1.21502     0.43956     0.42457
 Zero-point vibrational energy     703382.2 (Joules/Mol)
                                  168.11237 (Kcal/Mol)
 Warning -- explicit consideration of  18 degrees of freedom as
           vibrations may cause significant error
 Vibrational temperatures:     47.21   115.70   161.27   192.19   197.87
          (Kelvin)            321.15   385.95   396.66   439.67   470.64
                              522.44   539.88   559.41   617.21   641.89
                              657.15   716.61   885.92   916.28   958.02
                             1030.40  1070.71  1123.82  1141.37  1167.43
                             1233.43  1283.33  1297.25  1301.02  1322.72
                             1371.05  1411.24  1415.83  1450.82  1477.34
                             1507.84  1545.82  1550.56  1571.10  1594.42
                             1617.75  1638.63  1670.93  1704.80  1739.52
                             1754.61  1781.60  1815.61  1829.20  1844.30
                             1871.94  1888.65  1912.61  1932.43  1945.00
                             1955.31  1985.81  1995.92  2006.73  2013.31
                             2027.52  2146.07  2170.15  2176.09  2181.53
                             2189.37  2193.75  2195.67  2221.89  2609.31
                             2622.23  4366.49  4367.77  4372.92  4383.87
                             4397.08  4404.95  4422.91  4424.71  4428.55
                             4447.27  4449.54  4451.68  4457.26  4461.58
                             4532.56  4576.88

 Zero-point correction=                           0.267904 (Hartree/Particle)
 Thermal correction to Energy=                    0.280469
 Thermal correction to Enthalpy=                  0.281414
 Thermal correction to Gibbs Free Energy=         0.228821
 Sum of electronic and zero-point Energies=           -692.341070
 Sum of electronic and thermal Energies=              -692.328505
 Sum of electronic and thermal Enthalpies=            -692.327561
 Sum of electronic and thermal Free Energies=         -692.380153

                     E (Thermal)             CV                S
                      KCal/Mol        Cal/Mol-Kelvin    Cal/Mol-Kelvin
 Total                  175.997             50.472            110.689
 Electronic               0.000              0.000              0.000
 Translational            0.889              2.981             41.903
 Rotational               0.889              2.981             31.628
 Vibrational            174.220             44.510             37.159
 Vibration     1          0.594              1.983              5.651
 Vibration     2          0.600              1.962              3.881
 Vibration     3          0.607              1.939              3.232
 Vibration     4          0.613              1.920              2.894
 Vibration     5          0.614              1.916              2.838
 Vibration     6          0.649              1.806              1.933
 Vibration     7          0.673              1.731              1.607
 Vibration     8          0.677              1.718              1.560
 Vibration     9          0.696              1.663              1.386
 Vibration    10          0.711              1.621              1.274
 Vibration    11          0.737              1.548              1.109
 Vibration    12          0.746              1.523              1.058
 Vibration    13          0.757              1.494              1.005
 Vibration    14          0.790              1.407              0.862
 Vibration    15          0.805              1.369              0.808
 Vibration    16          0.815              1.346              0.776
 Vibration    17          0.854              1.254              0.663
 Vibration    18          0.975              0.999              0.423

 Normal termination of Gaussian 16 at Sat Feb 24 00:50:45 2024.
