 Gaussian 16, Revision A.03,
 Gaussian 16:  EM64M-G16RevA.03 25-Dec-2016

 ---------------------
 # freq b3lyp/6-31g(d)
 ---------------------

 ---------
 good luck
 ---------
 Symbolic Z-matrix:
 Charge =  0 Multiplicity = 1

                         Standard orientation:
 ---------------------------------------------------------------------
 Center     Atomic      Atomic             Coordinates (Angstroms)
 Number     Number       Type             X           Y           Z
 ---------------------------------------------------------------------
      1          8           0       -2.407693    0.384653   -0.585651
      2          6           0       -1.360782   -0.043034   -0.150897
      3          6           0       -0.509402    0.589725    0.959956
      4          6           0        0.308690   -0.613021    1.464722
      5          6           0        0.453229    1.621887    0.314698
      6          6           0        1.231754    1.012548   -0.870636
      7          6           0        1.765239   -0.405362   -0.574652
      8          6           0        0.712415   -1.288022    0.130722
      9          6           0       -0.633235   -1.312405   -0.627907
     10          1           0       -1.141771    1.070840    1.711713
     11          1           0        1.173931   -0.316180    2.068747
     12          1           0       -0.310140   -1.285261    2.073092
     13          1           0       -0.111938    2.498395   -0.022740
     14          1           0        1.150065    1.965219    1.091447
     15          1           0        0.567449    0.971114   -1.744214
     16          1           0        2.058569    1.673887   -1.156016
     17          1           0        2.652415   -0.342998    0.070779
     18          1           0        2.092572   -0.877433   -1.510205
     19          1           0        1.115839   -2.295275    0.280772
     20          1           0       -1.237180   -2.181750   -0.333544
     21          1           0       -0.555714   -1.331675   -1.720656
 ---------------------------------------------------------------------

 SCF Done:  E(RB3LYP) =  -387.305427209     A.U. after   13 cycles

 The electronic state is 1-A.
 Alpha  occ. eigenvalues --  -19.13341 -10.26666 -10.19606 -10.19201 -10.19130
 Alpha  occ. eigenvalues --  -10.18834 -10.18754 -10.18730 -10.18660  -1.03253
 Alpha  occ. eigenvalues --   -0.86264  -0.76751  -0.75264  -0.69995  -0.62770
 Alpha  occ. eigenvalues --   -0.61209  -0.55171  -0.51831  -0.49368  -0.47000
 Alpha  occ. eigenvalues --   -0.44987  -0.42655  -0.41103  -0.40921  -0.39521
 Alpha  occ. eigenvalues --   -0.38525  -0.38254  -0.36780  -0.34375  -0.33542
 Alpha  occ. eigenvalues --   -0.32463  -0.30731  -0.30419  -0.23107
 Alpha virt. eigenvalues --   -0.01286   0.07382   0.11226   0.11743   0.13104
 Alpha virt. eigenvalues --    0.14252   0.15070   0.16315   0.16525   0.16812
 Alpha virt. eigenvalues --    0.17199   0.18542   0.19612   0.20699   0.21822

 Mulliken charges:
               1
     1  O   -0.457489
     2  C    0.450644
     3  C   -0.168242
     4  C   -0.282226
     5  C   -0.261525
     6  C   -0.292704
     7  C   -0.256356
     8  C   -0.109253
     9  C   -0.356846
    10  H    0.144682
    11  H    0.136734
    12  H    0.139321
    13  H    0.153644
    14  H    0.138486
    15  H    0.149490
    16  H    0.141079
    17  H    0.132703
    18  H    0.135648
    19  H    0.126517
    20  H    0.169250
    21  H    0.166445
 Sum of Mulliken charges =  -0.00000

 Dipole moment (field-independent basis, Debye):
    X=              2.6627    Y=             -0.8504    Z=              0.8728  Tot=              2.9283
 Quadrupole moment (field-independent basis, Debye-Ang):
   XX=            -62.4029   YY=            -52.9377   ZZ=            -53.9051
   XY=              2.6009   XZ=             -2.7162   YZ=              0.6477

  Exact polarizability:  82.055  -0.670  78.483   1.393   1.064  73.638
 Approx polarizability: 120.245  -3.924 109.538   7.377   0.535 108.068

                      1                      2                      3
                      A                      A                      A
 Frequencies --    107.8375               229.6636               260.5733
 Red. masses --      4.6722                 2.4908                 1.9567
 Frc consts  --      0.0320                 0.0774                 0.0783
 IR Inten    --      4.3645                 0.4937                 0.4664

                      4                      5                      6
                      A                      A                      A
 Frequencies --    342.2106               406.0898               420.5844
 Red. masses --      1.9600                 2.6062                 2.8587
 Frc consts  --      0.1352                 0.2532                 0.2979
 IR Inten    --      0.2794                 1.2416                 1.1435

                      7                      8                      9
                      A                      A                      A
 Frequencies --    470.6876               504.6777               594.7003
 Red. masses --      3.8978                 2.1193                 2.5999
 Frc consts  --      0.5088                 0.3180                 0.5417
 IR Inten    --      6.6500                 0.0973                 2.6423

                     10                     11                     12
                      A                      A                      A
 Frequencies --    640.4049               721.3554               787.0205
 Red. masses --      4.2827                 2.2763                 2.8169
 Frc consts  --      1.0349                 0.6979                 1.0280
 IR Inten    --      0.3073                 4.7578                 1.1587

                     13                     14                     15
                      A                      A                      A
 Frequencies --    796.2772               834.1977               878.8715
 Red. masses --      3.6236                 2.4555                 2.0326
 Frc consts  --      1.3537                 1.0068                 0.9250
 IR Inten    --      0.7389                 1.8428                 0.6972

                     16                     17                     18
                      A                      A                      A
 Frequencies --    882.8509               896.0755               938.4324
 Red. masses --      1.7771                 2.1805                 2.0557
 Frc consts  --      0.8161                 1.0315                 1.0667
 IR Inten    --      1.9564                 6.4140                 1.0313

                     19                     20                     21
                      A                      A                      A
 Frequencies --    964.1350              1014.1634              1028.3174
 Red. masses --      1.9733                 1.6485                 1.6857
 Frc consts  --      1.0808                 0.9990                 1.0503
 IR Inten    --      1.0509                 2.4082                 1.2588

                     22                     23                     24
                      A                      A                      A
 Frequencies --   1037.0439              1073.6364              1096.1102
 Red. masses --      1.8433                 1.9203                 2.1314
 Frc consts  --      1.1680                 1.3042                 1.5088
 IR Inten    --      3.1556                 0.6207                22.0910

                     25                     26                     27
                      A                      A                      A
 Frequencies --   1133.2787              1152.1938              1168.1280
 Red. masses --      1.0369                 1.3558                 1.5470
 Frc consts  --      0.7847                 1.0604                 1.2437
 IR Inten    --      0.4253                 7.8207                17.1593

                     28                     29                     30
                      A                      A                      A
 Frequencies --   1189.6644              1225.0225              1261.6868
 Red. masses --      1.6253                 1.5470                 1.4578
 Frc consts  --      1.3553                 1.3678                 1.3672
 IR Inten    --     15.2050                 2.2690                 0.7815

                     31                     32                     33
                      A                      A                      A
 Frequencies --   1289.6920              1300.4384              1314.9918
 Red. masses --      1.4300                 1.5282                 1.4848
 Frc consts  --      1.4014                 1.5226                 1.5128
 IR Inten    --      0.5415                 3.8169                 1.0899

                     34                     35                     36
                      A                      A                      A
 Frequencies --   1341.1028              1357.5513              1363.4466
 Red. masses --      1.4014                 1.5325                 1.4872
 Frc consts  --      1.4850                 1.6640                 1.6289
 IR Inten    --      0.8275                 1.9756                 2.8041

                     37                     38                     39
                      A                      A                      A
 Frequencies --   1386.5994              1398.9224              1409.8591
 Red. masses --      1.4309                 1.4254                 1.4235
 Frc consts  --      1.6209                 1.6435                 1.6671
 IR Inten    --      0.8132                 0.8949                 1.8199

                     40                     41                     42
                      A                      A                      A
 Frequencies --   1478.6902              1515.0131              1517.2099
 Red. masses --      1.0910                 1.0871                 1.0873
 Frc consts  --      1.4054                 1.4701                 1.4747
 IR Inten    --     10.1553                 2.9071                 1.9549

                     43                     44                     45
                      A                      A                      A
 Frequencies --   1531.3845              1541.5656              1844.0818
 Red. masses --      1.0891                 1.0952                12.3373
 Frc consts  --      1.5048                 1.5335                24.7190
 IR Inten    --      7.6931                 0.6489               207.7980

                     46                     47                     48
                      A                      A                      A
 Frequencies --   3031.6464              3037.0053              3041.0306
 Red. masses --      1.0623                 1.0682                 1.0642
 Frc consts  --      5.7523                 5.8047                 5.7986
 IR Inten    --     29.9454                22.7329                16.1009

                     49                     50                     51
                      A                      A                      A
 Frequencies --   3046.7664              3048.7569              3069.8287
 Red. masses --      1.0625                 1.0658                 1.0980
 Frc consts  --      5.8113                 5.8366                 6.0963
 IR Inten    --     28.7125                11.7228                42.7326

                     52                     53                     54
                      A                      A                      A
 Frequencies --   3079.5156              3082.9190              3090.8970
 Red. masses --      1.0863                 1.0975                 1.1037
 Frc consts  --      6.0695                 6.1457                 6.2125
 IR Inten    --     62.4486                32.5935                11.8131

                     55                     56                     57
                      A                      A                      A
 Frequencies --   3094.3120              3103.0104              3103.6597
 Red. masses --      1.1036                 1.0953                 1.0902
 Frc consts  --      6.2255                 6.2139                 6.1871
 IR Inten    --     65.0958                28.0060                16.4087

 - Thermochemistry -
 -------------------
 Temperature   298.150 Kelvin.  Pressure   1.00000 Atm.
 Atom     1 has atomic number  8 and mass  15.99491

 Molecular mass:   124.08882 amu.
 Principal axes and moments of inertia in atomic units:
                           1         2         3
     Eigenvalues --   754.894331055.616831208.23092
           X            0.99903   0.03453  -0.02721
           Y           -0.03418   0.99933   0.01312
           Z            0.02765  -0.01218   0.99954
 This molecule is an asymmetric top.
 Rotational symmetry number  1.
 Warning -- assumption of classical behavior for rotation
           may cause significant error
 Rotational temperatures (Kelvin)      0.11474     0.08205     0.07169
 Rotational constants (GHZ):           2.39072     1.70966     1.49371
 Zero-point vibrational energy     493314.8 (Joules/Mol)
                                  117.90506 (Kcal/Mol)
 Warning -- explicit consideration of   9 degrees of freedom as
           vibrations may cause significant error
 Vibrational temperatures:    155.15   330.43   374.91   492.36   584.27
          (Kelvin)            605.13   677.21   726.12   855.64   921.40
                             1037.87  1132.35  1145.67  1200.22  1264.50
                             1270.23  1289.25  1350.19  1387.18  1459.15
                             1479.52  1492.07  1544.72  1577.06  1630.54
                             1657.75  1680.68  1711.66  1762.53  1815.29
                             1855.58  1871.04  1891.98  1929.55  1953.21
                             1961.70  1995.01  2012.74  2028.47  2127.51
                             2179.77  2182.93  2203.32  2217.97  2653.22
                             4361.86  4369.57  4375.36  4383.62  4386.48
                             4416.80  4430.74  4435.63  4447.11  4452.02
                             4464.54  4465.47

 Zero-point correction=                           0.187894 (Hartree/Particle)
 Thermal correction to Energy=                    0.195128
 Thermal correction to Enthalpy=                  0.196072
 Thermal correction to Gibbs Free Energy=         0.156496
 Sum of electronic and zero-point Energies=           -387.117534
 Sum of electronic and thermal Energies=              -387.110299
 Sum of electronic and thermal Enthalpies=            -387.109355
 Sum of electronic and thermal Free Energies=         -387.148931

                     E (Thermal)             CV                S
                      KCal/Mol        Cal/Mol-Kelvin    Cal/Mol-Kelvin
 Total                  122.445             30.035             83.294
 Electronic               0.000              0.000              0.000
 Translational            0.889              2.981             40.361
 Rotational               0.889              2.981             28.356
 Vibrational            120.667             24.073             14.576
 Vibration     1          0.606              1.943              3.307
 Vibration     2          0.652              1.796              1.882
 Vibration     3          0.669              1.745              1.658
 Vibration     4          0.721              1.591              1.202
 Vibration     5          0.771              1.457              0.941
 Vibration     6          0.783              1.425              0.890
 Vibration     7          0.828              1.315              0.736
 Vibration     8          0.860              1.240              0.647
 Vibration     9          0.952              1.043              0.459

 Normal termination of Gaussian 16 at Wed Feb 21 18:26:02 2024.
