 Gaussian 16, Revision A.03,
 Gaussian 16:  EM64M-G16RevA.03 25-Dec-2016

 ---------------------
 # freq b3lyp/6-31g(d)
 ---------------------

 ---------
 good luck
 ---------
 Symbolic Z-matrix:
 Charge =  0 Multiplicity = 1

                         Standard orientation:
 ---------------------------------------------------------------------
 Center     Atomic      Atomic             Coordinates (Angstroms)
 Number     Number       Type             X           Y           Z
 ---------------------------------------------------------------------
      1          8           0       -2.750905    0.788988   -0.557747
      2          6           0       -1.761718    0.218853   -0.153053
      3          6           0       -0.579301    0.824085    0.601055
      4          6           0       -0.145510   -0.368057    1.481511
      5          6           0        0.589629    0.902348   -0.441277
      6          6           0        1.703054    1.846893    0.029805
      7          6           0        0.988222   -0.618942   -0.637441
      8          6           0        2.448652   -0.980131   -0.338308
      9          6           0       -0.012275   -1.356835    0.298943
     10          6           0       -1.424467   -1.275194   -0.318512
     11          1           0       -0.815651    1.774857    1.082752
     12          1           0        0.794239   -0.192502    2.014385
     13          1           0       -0.905415   -0.667518    2.212931
     14          1           0        0.207341    1.301952   -1.388413
     15          1           0        1.316142    2.868690    0.114070
     16          1           0        2.536836    1.867767   -0.680469
     17          1           0        2.106352    1.563570    1.008128
     18          1           0        0.790038   -0.906098   -1.678117
     19          1           0        2.615422   -2.047590   -0.524652
     20          1           0        2.724176   -0.781515    0.703476
     21          1           0        3.143827   -0.423833   -0.976285
     22          1           0        0.300305   -2.372597    0.558695
     23          1           0       -1.490518   -1.584272   -1.367617
     24          1           0       -2.153565   -1.870949    0.246753
 ---------------------------------------------------------------------

 SCF Done:  E(RB3LYP) =  -426.606910140     A.U. after   13 cycles

 The electronic state is 1-A.
 Alpha  occ. eigenvalues --  -19.13190 -10.26564 -10.19947 -10.19530 -10.19453
 Alpha  occ. eigenvalues --  -10.19096 -10.19036 -10.18826 -10.18098 -10.18007
 Alpha  occ. eigenvalues --   -1.03101  -0.87874  -0.77341  -0.75179  -0.70609
 Alpha  occ. eigenvalues --   -0.67363  -0.65395  -0.56914  -0.54633  -0.52303
 Alpha  occ. eigenvalues --   -0.50222  -0.47045  -0.45796  -0.43358  -0.41259
 Alpha  occ. eigenvalues --   -0.40378  -0.39949  -0.39278  -0.38773  -0.38217
 Alpha  occ. eigenvalues --   -0.36647  -0.35533  -0.34164  -0.33409  -0.31575
 Alpha  occ. eigenvalues --   -0.31154  -0.30568  -0.22960
 Alpha virt. eigenvalues --   -0.00860   0.07280   0.09592   0.11118   0.13003
 Alpha virt. eigenvalues --    0.13111   0.13913   0.14476   0.15585   0.16423
 Alpha virt. eigenvalues --    0.17093   0.18277   0.19155   0.19530   0.19668

 Mulliken charges:
               1
     1  O   -0.457761
     2  C    0.450617
     3  C   -0.170852
     4  C   -0.292410
     5  C   -0.100659
     6  C   -0.451205
     7  C   -0.080825
     8  C   -0.454755
     9  C   -0.116283
    10  C   -0.355833
    11  H    0.135621
    12  H    0.144471
    13  H    0.144615
    14  H    0.142794
    15  H    0.150519
    16  H    0.148365
    17  H    0.144922
    18  H    0.126685
    19  H    0.145006
    20  H    0.143836
    21  H    0.147357
    22  H    0.123076
    23  H    0.164623
    24  H    0.168076
 Sum of Mulliken charges =  -0.00000

 Dipole moment (field-independent basis, Debye):
    X=              2.7096    Y=             -1.3088    Z=              0.7958  Tot=              3.1126
 Quadrupole moment (field-independent basis, Debye-Ang):
   XX=            -70.5259   YY=            -60.6959   ZZ=            -60.3164
   XY=              4.5694   XZ=             -3.0788   YZ=              0.8484

  Exact polarizability:  98.620   0.168  89.573   0.726   0.119  78.097
 Approx polarizability: 135.805  -4.742 126.593   4.990  -1.928 120.512

                      1                      2                      3
                      A                      A                      A
 Frequencies --     82.1593               133.1634               218.2616
 Red. masses --      3.4876                 4.3953                 1.0841
 Frc consts  --      0.0139                 0.0459                 0.0304
 IR Inten    --      2.0428                 2.7856                 0.0446

                      4                      5                      6
                      A                      A                      A
 Frequencies --    259.6538               277.0754               298.1360
 Red. masses --      1.4821                 1.8812                 1.6960
 Frc consts  --      0.0589                 0.0851                 0.0888
 IR Inten    --      0.1511                 0.1435                 0.0327

                      7                      8                      9
                      A                      A                      A
 Frequencies --    301.3950               373.1714               416.8468
 Red. masses --      2.5469                 2.4080                 4.2685
 Frc consts  --      0.1363                 0.1976                 0.4370
 IR Inten    --      0.5414                 0.1937                 2.6830

                     10                     11                     12
                      A                      A                      A
 Frequencies --    459.1449               494.7934               581.7500
 Red. masses --      2.5024                 2.8768                 2.4717
 Frc consts  --      0.3108                 0.4150                 0.4929
 IR Inten    --      2.0007                 6.2053                 1.5165

                     13                     14                     15
                      A                      A                      A
 Frequencies --    625.8947               692.4267               746.2609
 Red. masses --      3.3860                 3.1477                 2.7911
 Frc consts  --      0.7815                 0.8892                 0.9158
 IR Inten    --      0.4998                 0.6216                 0.3294

                     16                     17                     18
                      A                      A                      A
 Frequencies --    756.4269               809.1158               829.4757
 Red. masses --      4.2952                 3.0545                 2.3359
 Frc consts  --      1.4480                 1.1782                 0.9469
 IR Inten    --      4.7110                 5.1549                 0.5820

                     19                     20                     21
                      A                      A                      A
 Frequencies --    898.6428               921.8595               930.8170
 Red. masses --      2.2486                 2.5718                 2.3155
 Frc consts  --      1.0699                 1.2877                 1.1820
 IR Inten    --      6.9836                 1.8980                 1.1597

                     22                     23                     24
                      A                      A                      A
 Frequencies --    951.0814               988.3278              1021.4563
 Red. masses --      1.8603                 1.7415                 1.4519
 Frc consts  --      0.9915                 1.0022                 0.8925
 IR Inten    --      0.4626                 1.5139                 7.0766

                     25                     26                     27
                      A                      A                      A
 Frequencies --   1026.3933              1035.2557              1061.4725
 Red. masses --      1.5514                 1.5314                 1.8889
 Frc consts  --      0.9629                 0.9670                 1.2539
 IR Inten    --      1.5618                12.7555                 8.6718

                     28                     29                     30
                      A                      A                      A
 Frequencies --   1084.8522              1100.5644              1136.8693
 Red. masses --      1.5663                 1.4559                 1.2321
 Frc consts  --      1.0861                 1.0390                 0.9382
 IR Inten    --      3.6422                 1.1470                 0.9311

                     31                     32                     33
                      A                      A                      A
 Frequencies --   1164.8271              1167.6754              1193.3601
 Red. masses --      2.2166                 1.7169                 2.2023
 Frc consts  --      1.7720                 1.3792                 1.8479
 IR Inten    --      1.1698                14.9787                23.5043

                     34                     35                     36
                      A                      A                      A
 Frequencies --   1211.8516              1241.3693              1265.8727
 Red. masses --      1.6541                 1.6008                 1.6982
 Frc consts  --      1.4312                 1.4534                 1.6033
 IR Inten    --      1.1902                 1.5748                 2.9747

                     37                     38                     39
                      A                      A                      A
 Frequencies --   1287.5628              1316.8536              1327.8766
 Red. masses --      1.5299                 1.3952                 1.5029
 Frc consts  --      1.4943                 1.4255                 1.5613
 IR Inten    --      0.6561                 0.3169                 5.2949

                     40                     41                     42
                      A                      A                      A
 Frequencies --   1344.8158              1350.5385              1394.0081
 Red. masses --      1.4559                 1.6040                 1.3092
 Frc consts  --      1.5514                 1.7237                 1.4989
 IR Inten    --      2.6798                 0.4499                 2.2645

                     43                     44                     45
                      A                      A                      A
 Frequencies --   1398.9186              1436.0284              1445.9545
 Red. masses --      1.3862                 1.2757                 1.2161
 Frc consts  --      1.5983                 1.5500                 1.4980
 IR Inten    --      3.6640                 2.9921                 3.2745

                     46                     47                     48
                      A                      A                      A
 Frequencies --   1481.4326              1520.5839              1521.9445
 Red. masses --      1.0904                 1.0444                 1.0493
 Frc consts  --      1.4099                 1.4228                 1.4320
 IR Inten    --      8.7219                 7.3920                 0.2166

                     49                     50                     51
                      A                      A                      A
 Frequencies --   1532.7666              1539.1042              1546.0246
 Red. masses --      1.0776                 1.0494                 1.0637
 Frc consts  --      1.4916                 1.4646                 1.4979
 IR Inten    --      0.1474                 2.7601                14.7520

                     52                     53                     54
                      A                      A                      A
 Frequencies --   1849.1448              3035.2666              3046.8750
 Red. masses --     12.3352                 1.0857                 1.0354
 Frc consts  --     24.8506                 5.8930                 5.6634
 IR Inten    --    249.9007                11.2550                11.2522

                     55                     56                     57
                      A                      A                      A
 Frequencies --   3052.7882              3053.3830              3056.4343
 Red. masses --      1.0415                 1.0612                 1.0817
 Frc consts  --      5.7190                 5.8290                 5.9540
 IR Inten    --     24.0623                28.2196                31.5496

                     58                     59                     60
                      A                      A                      A
 Frequencies --   3068.7762              3101.1688              3104.2470
 Red. masses --      1.0613                 1.0886                 1.1003
 Frc consts  --      5.8884                 6.1686                 6.2473
 IR Inten    --     18.7013                24.8528                12.1578

                     61                     62                     63
                      A                      A                      A
 Frequencies --   3110.4751              3113.1505              3114.4981
 Red. masses --      1.1014                 1.1037                 1.1029
 Frc consts  --      6.2782                 6.3023                 6.3034
 IR Inten    --     55.8021                16.5044                10.4572

                     64                     65                     66
                      A                      A                      A
 Frequencies --   3118.0856              3126.2219              3134.7864
 Red. masses --      1.1018                 1.1019                 1.0888
 Frc consts  --      6.3116                 6.3450                 6.3040
 IR Inten    --     35.5896                56.7607                24.1660

 - Thermochemistry -
 -------------------
 Temperature   298.150 Kelvin.  Pressure   1.00000 Atm.
 Atom     1 has atomic number  8 and mass  15.99491

 Molecular mass:   138.10447 amu.
 Principal axes and moments of inertia in atomic units:
                           1         2         3
     Eigenvalues --   831.866411510.747581862.41582
           X            0.99925   0.03733  -0.01023
           Y           -0.03716   0.99917   0.01639
           Z            0.01083  -0.01600   0.99981
 This molecule is an asymmetric top.
 Rotational symmetry number  1.
 Warning -- assumption of classical behavior for rotation
           may cause significant error
 Rotational temperatures (Kelvin)      0.10412     0.05733     0.04651
 Rotational constants (GHZ):           2.16951     1.19460     0.96903
 Zero-point vibrational energy     563964.0 (Joules/Mol)
                                  134.79063 (Kcal/Mol)
 Warning -- explicit consideration of  12 degrees of freedom as
           vibrations may cause significant error
 Vibrational temperatures:    118.21   191.59   314.03   373.58   398.65
          (Kelvin)            428.95   433.64   536.91   599.75   660.61
                              711.90   837.01   900.52   996.25  1073.70
                             1088.33  1164.14  1193.43  1292.95  1326.35
                             1339.24  1368.39  1421.98  1469.65  1476.75
                             1489.50  1527.22  1560.86  1583.47  1635.70
                             1675.93  1680.02  1716.98  1743.58  1786.05
                             1821.31  1852.52  1894.66  1910.52  1934.89
                             1943.12  2005.67  2012.73  2066.12  2080.41
                             2131.45  2187.78  2189.74  2205.31  2214.43
                             2224.38  2660.51  4367.07  4383.77  4392.28
                             4393.14  4397.53  4415.28  4461.89  4466.32
                             4475.28  4479.13  4481.07  4486.23  4497.94
                             4510.26

 Zero-point correction=                           0.214803 (Hartree/Particle)
 Thermal correction to Energy=                    0.223894
 Thermal correction to Enthalpy=                  0.224839
 Thermal correction to Gibbs Free Energy=         0.181225
 Sum of electronic and zero-point Energies=           -426.392108
 Sum of electronic and thermal Energies=              -426.383016
 Sum of electronic and thermal Enthalpies=            -426.382072
 Sum of electronic and thermal Free Energies=         -426.425685

                     E (Thermal)             CV                S
                      KCal/Mol        Cal/Mol-Kelvin    Cal/Mol-Kelvin
 Total                  140.496             36.792             91.793
 Electronic               0.000              0.000              0.000
 Translational            0.889              2.981             40.680
 Rotational               0.889              2.981             29.239
 Vibrational            138.718             30.830             21.874
 Vibration     1          0.600              1.961              3.839
 Vibration     2          0.613              1.920              2.900
 Vibration     3          0.646              1.813              1.973
 Vibration     4          0.668              1.746              1.664
 Vibration     5          0.678              1.716              1.552
 Vibration     6          0.691              1.677              1.427
 Vibration     7          0.693              1.671              1.409
 Vibration     8          0.745              1.527              1.067
 Vibration     9          0.780              1.434              0.903
 Vibration    10          0.817              1.341              0.769
 Vibration    11          0.850              1.262              0.671
 Vibration    12          0.939              1.071              0.482

 Normal termination of Gaussian 16 at Wed Feb 21 19:32:42 2024.
