 Gaussian 16, Revision A.03,
 Gaussian 16:  EM64M-G16RevA.03 25-Dec-2016

 ---------------------
 # freq b3lyp/6-31g(d)
 ---------------------

 ---------
 good luck
 ---------
 Symbolic Z-matrix:
 Charge =  0 Multiplicity = 1

                         Standard orientation:
 ---------------------------------------------------------------------
 Center     Atomic      Atomic             Coordinates (Angstroms)
 Number     Number       Type             X           Y           Z
 ---------------------------------------------------------------------
      1          8           0        2.591365   -0.318795    0.317900
      2          6           0        1.444100    0.071231    0.292391
      3          6           0        0.295785   -0.503494   -0.550804
      4          6           0        0.562151   -1.897227   -1.091133
      5          6           0       -0.920617   -0.259829    0.415579
      6          6           0       -0.838527   -1.075095    1.720347
      7          6           0       -2.296842   -0.537275   -0.212128
      8          6           0        0.071048    0.600178   -1.639630
      9          6           0       -0.582053    1.784110   -0.862089
     10          6           0       -0.605799    1.264457    0.595738
     11          6           0        0.858201    1.254275    1.083307
     12          1           0       -0.250599   -2.234651   -1.744450
     13          1           0        1.493339   -1.908855   -1.667470
     14          1           0        0.677111   -2.625710   -0.281026
     15          1           0       -1.588746   -0.724184    2.439604
     16          1           0        0.139076   -1.025482    2.209380
     17          1           0       -1.045508   -2.133443    1.524445
     18          1           0       -3.092910   -0.214647    0.470722
     19          1           0       -2.457233   -0.028818   -1.165879
     20          1           0       -2.432368   -1.611330   -0.384953
     21          1           0       -0.587957    0.212400   -2.423815
     22          1           0        1.011978    0.876679   -2.127340
     23          1           0       -1.589071    2.001159   -1.230798
     24          1           0       -0.004968    2.710785   -0.949056
     25          1           0       -1.294558    1.802361    1.254971
     26          1           0        0.960505    1.068326    2.158016
     27          1           0        1.406307    2.177780    0.864987
 ---------------------------------------------------------------------

 SCF Done:  E(RB3LYP) =  -465.923552541     A.U. after   14 cycles

 The electronic state is 1-A.
 Alpha  occ. eigenvalues --  -19.13311 -10.26392 -10.20299 -10.19570 -10.19360
 Alpha  occ. eigenvalues --  -10.19012 -10.18680 -10.18651 -10.17902 -10.17885
 Alpha  occ. eigenvalues --  -10.17368  -1.03202  -0.88106  -0.76632  -0.75990
 Alpha  occ. eigenvalues --   -0.73391  -0.68212  -0.66451  -0.63757  -0.58224
 Alpha  occ. eigenvalues --   -0.53600  -0.49658  -0.48176  -0.48044  -0.46111
 Alpha  occ. eigenvalues --   -0.44165  -0.41925  -0.40952  -0.40424  -0.39602
 Alpha  occ. eigenvalues --   -0.39426  -0.38406  -0.37792  -0.37214  -0.35422
 Alpha  occ. eigenvalues --   -0.34526  -0.34033  -0.33109  -0.31957  -0.31014
 Alpha  occ. eigenvalues --   -0.29430  -0.22913
 Alpha virt. eigenvalues --   -0.00851   0.06846   0.10449   0.10726   0.11873
 Alpha virt. eigenvalues --    0.12899   0.12990   0.14774   0.15528   0.15950
 Alpha virt. eigenvalues --    0.16411   0.17137   0.18056   0.19128   0.19733

 Mulliken charges:
               1
     1  O   -0.463843
     2  C    0.441491
     3  C    0.026220
     4  C   -0.477522
     5  C    0.087229
     6  C   -0.471590
     7  C   -0.467209
     8  C   -0.301717
     9  C   -0.280201
    10  C   -0.112863
    11  C   -0.359174
    12  H    0.138793
    13  H    0.163620
    14  H    0.151504
    15  H    0.144670
    16  H    0.153732
    17  H    0.149654
    18  H    0.144206
    19  H    0.147027
    20  H    0.147387
    21  H    0.149311
    22  H    0.153178
    23  H    0.143275
    24  H    0.138800
    25  H    0.118221
    26  H    0.171758
    27  H    0.164044
 Sum of Mulliken charges =  -0.00000

 Dipole moment (field-independent basis, Debye):
    X=             -2.8247    Y=              0.8596    Z=             -0.1561  Tot=              2.9567
 Quadrupole moment (field-independent basis, Debye-Ang):
   XX=            -76.8880   YY=            -66.5903   ZZ=            -66.0179
   XY=              2.2581   XZ=             -1.0693   YZ=              0.3457

  Exact polarizability: 102.425  -0.513  98.108  -0.054   1.157  94.748
 Approx polarizability: 153.727  -4.267 138.313   1.441   1.479 136.591

                      1                      2                      3
                      A                      A                      A
 Frequencies --    106.2836               169.1312               179.3392
 Red. masses --      4.7275                 1.1664                 1.0773
 Frc consts  --      0.0315                 0.0197                 0.0204
 IR Inten    --      3.6084                 0.0691                 0.1440

                      4                      5                      6
                      A                      A                      A
 Frequencies --    210.0760               225.2655               237.6435
 Red. masses --      2.0676                 1.1743                 2.6300
 Frc consts  --      0.0538                 0.0351                 0.0875
 IR Inten    --      0.1887                 0.2859                 0.9057

                      7                      8                      9
                      A                      A                      A
 Frequencies --    261.1210               290.2642               298.9538
 Red. masses --      2.1964                 1.9479                 2.8122
 Frc consts  --      0.0882                 0.0967                 0.1481
 IR Inten    --      0.7100                 0.4055                 1.8779

                     10                     11                     12
                      A                      A                      A
 Frequencies --    383.1293               394.4910               415.8731
 Red. masses --      2.4837                 2.4438                 2.1790
 Frc consts  --      0.2148                 0.2241                 0.2220
 IR Inten    --      0.7697                 0.1501                 1.2230

                     13                     14                     15
                      A                      A                      A
 Frequencies --    474.0954               522.2730               556.0119
 Red. masses --      3.3003                 2.9884                 4.1957
 Frc consts  --      0.4371                 0.4803                 0.7642
 IR Inten    --      0.5363                 4.5566                 2.0120

                     16                     17                     18
                      A                      A                      A
 Frequencies --    571.6968               617.1225               646.9173
 Red. masses --      3.6515                 2.7316                 3.7828
 Frc consts  --      0.7032                 0.6129                 0.9327
 IR Inten    --      0.8803                 0.9384                 1.7688

                     19                     20                     21
                      A                      A                      A
 Frequencies --    712.0226               757.1329               839.7662
 Red. masses --      3.0203                 2.1482                 1.5476
 Frc consts  --      0.9022                 0.7255                 0.6430
 IR Inten    --      0.4371                 6.5419                 0.4696

                     22                     23                     24
                      A                      A                      A
 Frequencies --    862.2337               875.0049               927.4630
 Red. masses --      2.6818                 2.1094                 2.5858
 Frc consts  --      1.1747                 0.9515                 1.3105
 IR Inten    --      1.4213                 0.5486                 1.2347

                     25                     26                     27
                      A                      A                      A
 Frequencies --    948.9747               951.0261               964.3338
 Red. masses --      1.8088                 2.0361                 1.6728
 Frc consts  --      0.9597                 1.0850                 0.9166
 IR Inten    --      3.0840                 0.4637                 1.2918

                     28                     29                     30
                      A                      A                      A
 Frequencies --    969.3905              1008.6243              1039.8125
 Red. masses --      1.6391                 1.7710                 1.4998
 Frc consts  --      0.9075                 1.0615                 0.9554
 IR Inten    --      2.7861                 0.0532                 1.5371

                     31                     32                     33
                      A                      A                      A
 Frequencies --   1044.8312              1063.0587              1107.2652
 Red. masses --      1.9431                 2.1378                 1.2877
 Frc consts  --      1.2498                 1.4234                 0.9302
 IR Inten    --     25.8815                20.4572                 1.5387

                     34                     35                     36
                      A                      A                      A
 Frequencies --   1127.9130              1155.2879              1180.7856
 Red. masses --      1.4332                 2.0208                 2.4750
 Frc consts  --      1.0743                 1.5891                 2.0332
 IR Inten    --      4.9494                 1.1329                 0.6237

                     37                     38                     39
                      A                      A                      A
 Frequencies --   1196.3740              1225.1576              1234.4686
 Red. masses --      1.6766                 1.9642                 1.7640
 Frc consts  --      1.4139                 1.7371                 1.5838
 IR Inten    --      3.9723                 1.0857                 5.1327

                     40                     41                     42
                      A                      A                      A
 Frequencies --   1256.5476              1278.4095              1283.9878
 Red. masses --      1.7852                 2.0073                 1.4587
 Frc consts  --      1.6607                 1.9329                 1.4169
 IR Inten    --      3.1416                 0.0357                 3.4264

                     43                     44                     45
                      A                      A                      A
 Frequencies --   1311.6117              1338.6895              1346.2221
 Red. masses --      2.2000                 1.6445                 1.5146
 Frc consts  --      2.2299                 1.7364                 1.6173
 IR Inten    --      6.6738                 2.2763                 1.0305

                     46                     47                     48
                      A                      A                      A
 Frequencies --   1359.9700              1434.1416              1438.9750
 Red. masses --      2.1580                 1.2361                 1.2741
 Frc consts  --      2.3515                 1.4980                 1.5544
 IR Inten    --      4.7439                 4.2942                 4.4688

                     49                     50                     51
                      A                      A                      A
 Frequencies --   1455.3707              1490.6561              1512.7221
 Red. masses --      1.2087                 1.0853                 1.0553
 Frc consts  --      1.5084                 1.4209                 1.4228
 IR Inten    --      6.8604                 8.9424                 2.5986

                     52                     53                     54
                      A                      A                      A
 Frequencies --   1517.3889              1521.4507              1525.9172
 Red. masses --      1.0492                 1.0520                 1.0546
 Frc consts  --      1.4233                 1.4348                 1.4468
 IR Inten    --      6.3633                 4.3595                 2.8089

                     55                     56                     57
                      A                      A                      A
 Frequencies --   1531.0894              1540.3333              1546.1686
 Red. masses --      1.0546                 1.0639                 1.0649
 Frc consts  --      1.4566                 1.4872                 1.4999
 IR Inten    --      1.9236                 0.3796                 4.8989

                     58                     59                     60
                      A                      A                      A
 Frequencies --   1554.7379              1841.5218              3045.8169
 Red. masses --      1.0765                12.5031                 1.0388
 Frc consts  --      1.5331                24.9817                 5.6781
 IR Inten    --      4.0877               209.3535                12.2955

                     61                     62                     63
                      A                      A                      A
 Frequencies --   3050.1081              3053.1840              3064.5641
 Red. masses --      1.0375                 1.0379                 1.0594
 Frc consts  --      5.6867                 5.7007                 5.8620
 IR Inten    --     19.3603                36.9501                27.9224

                     64                     65                     66
                      A                      A                      A
 Frequencies --   3070.3453              3073.5353              3094.3431
 Red. masses --      1.0615                 1.0629                 1.0944
 Frc consts  --      5.8957                 5.9161                 6.1737
 IR Inten    --     13.2992                28.5223                23.5386

                     67                     68                     69
                      A                      A                      A
 Frequencies --   3097.4951              3101.1010              3107.8046
 Red. masses --      1.0985                 1.1014                 1.1040
 Frc consts  --      6.2094                 6.2407                 6.2826
 IR Inten    --     14.4402                 4.1582                 7.4029

                     70                     71                     72
                      A                      A                      A
 Frequencies --   3108.5485              3115.1743              3117.8123
 Red. masses --      1.1007                 1.1050                 1.1024
 Frc consts  --      6.2667                 6.3178                 6.3135
 IR Inten    --     51.1552                45.6518                32.5227

                     73                     74                     75
                      A                      A                      A
 Frequencies --   3123.2501              3127.8512              3141.8622
 Red. masses --      1.1013                 1.0992                 1.0970
 Frc consts  --      6.3294                 6.3363                 6.3800
 IR Inten    --     16.8447                29.3439                29.4085

 - Thermochemistry -
 -------------------
 Temperature   298.150 Kelvin.  Pressure   1.00000 Atm.
 Atom     1 has atomic number  8 and mass  15.99491

 Molecular mass:   152.12012 amu.
 Principal axes and moments of inertia in atomic units:
                           1         2         3
     Eigenvalues --  1255.362401542.628581661.85836
           X            0.99903   0.04002  -0.01826
           Y           -0.03999   0.99920   0.00221
           Z            0.01834  -0.00147   0.99983
 This molecule is an asymmetric top.
 Rotational symmetry number  1.
 Warning -- assumption of classical behavior for rotation
           may cause significant error
 Rotational temperatures (Kelvin)      0.06900     0.05615     0.05212
 Rotational constants (GHZ):           1.43763     1.16991     1.08598
 Zero-point vibrational energy     635990.6 (Joules/Mol)
                                  152.00540 (Kcal/Mol)
 Warning -- explicit consideration of  17 degrees of freedom as
           vibrations may cause significant error
 Vibrational temperatures:    152.92   243.34   258.03   302.25   324.11
          (Kelvin)            341.92   375.69   417.63   430.13   551.24
                              567.58   598.35   682.12   751.43   799.98
                              822.54   887.90   930.77  1024.44  1089.35
                             1208.24  1240.56  1258.94  1334.41  1365.36
                             1368.31  1387.46  1394.74  1451.19  1496.06
                             1503.28  1529.50  1593.11  1622.82  1662.20
                             1698.89  1721.32  1762.73  1776.13  1807.89
                             1839.35  1847.37  1887.12  1926.08  1936.91
                             1956.69  2063.41  2070.36  2093.95  2144.72
                             2176.47  2183.18  2189.03  2195.45  2202.90
                             2216.20  2224.59  2236.92  2649.54  4382.25
                             4388.43  4392.85  4409.22  4417.54  4422.13
                             4452.07  4456.60  4461.79  4471.44  4472.51
                             4482.04  4485.84  4493.66  4500.28  4520.44

 Zero-point correction=                           0.242236 (Hartree/Particle)
 Thermal correction to Energy=                    0.252932
 Thermal correction to Enthalpy=                  0.253877
 Thermal correction to Gibbs Free Energy=         0.207495
 Sum of electronic and zero-point Energies=           -465.681317
 Sum of electronic and thermal Energies=              -465.670620
 Sum of electronic and thermal Enthalpies=            -465.669676
 Sum of electronic and thermal Free Energies=         -465.716057

                     E (Thermal)             CV                S
                      KCal/Mol        Cal/Mol-Kelvin    Cal/Mol-Kelvin
 Total                  158.718             43.459             97.618
 Electronic               0.000              0.000              0.000
 Translational            0.889              2.981             40.968
 Rotational               0.889              2.981             29.555
 Vibrational            156.940             37.497             27.094
 Vibration     1          0.605              1.944              3.336
 Vibration     2          0.625              1.880              2.445
 Vibration     3          0.629              1.868              2.335
 Vibration     4          0.642              1.825              2.043
 Vibration     5          0.650              1.803              1.916
 Vibration     6          0.656              1.783              1.820
 Vibration     7          0.669              1.744              1.654
 Vibration     8          0.686              1.692              1.472
 Vibration     9          0.692              1.676              1.423
 Vibration    10          0.752              1.506              1.027
 Vibration    11          0.761              1.482              0.983
 Vibration    12          0.779              1.436              0.906
 Vibration    13          0.831              1.308              0.726
 Vibration    14          0.877              1.201              0.605
 Vibration    15          0.911              1.127              0.532
 Vibration    16          0.928              1.092              0.501
 Vibration    17          0.977              0.996              0.421

 Normal termination of Gaussian 16 at Thu Feb 22 10:20:56 2024.
