 Gaussian 16, Revision A.03,
 Gaussian 16:  EM64M-G16RevA.03 25-Dec-2016

 ---------------------
 # freq b3lyp/6-31g(d)
 ---------------------

 ---------
 good luck
 ---------
 Symbolic Z-matrix:
 Charge =  0 Multiplicity = 1

                         Standard orientation:
 ---------------------------------------------------------------------
 Center     Atomic      Atomic             Coordinates (Angstroms)
 Number     Number       Type             X           Y           Z
 ---------------------------------------------------------------------
      1          8           0        2.585454   -1.367563    0.024853
      2          6           0        1.559492   -0.714667    0.013999
      3          6           0        0.845659   -0.274878   -1.261916
      4          6           0       -0.588528   -0.857342   -1.251304
      5          6           0        0.770229    1.272937   -1.268765
      6          6           0        0.007939    1.760229   -0.020077
      7          6           0        0.760354    1.303464    1.246116
      8          6           0        0.840487   -0.243553    1.276151
      9          6           0       -0.593650   -0.828957    1.260270
     10          6           0       -1.363884   -0.373255   -0.006758
     11          7           0       -2.735496   -0.890881   -0.084314
     12          6           0       -1.416125    1.168953   -0.023628
     13          1           0        1.412272   -0.646353   -2.121550
     14          1           0       -0.548872   -1.956045   -1.260218
     15          1           0       -1.128170   -0.548577   -2.154898
     16          1           0        1.781664    1.699360   -1.289003
     17          1           0        0.261882    1.607092   -2.183045
     18          1           0       -0.051152    2.856069   -0.033636
     19          1           0        1.770322    1.733229    1.265353
     20          1           0        0.244020    1.657747    2.148719
     21          1           0        1.402292   -0.594463    2.147725
     22          1           0       -0.555581   -1.926992    1.293839
     23          1           0       -1.133848   -0.499336    2.159602
     24          1           0       -3.257941   -0.593819    0.740883
     25          1           0       -2.717219   -1.911203   -0.050402
     26          1           0       -1.972298    1.495726   -0.910874
     27          1           0       -1.974353    1.526646    0.854338
 ---------------------------------------------------------------------

 SCF Done:  E(RB3LYP) =  -520.082904392     A.U. after   14 cycles

 The electronic state is 1-A.
 Alpha  occ. eigenvalues --  -19.13176 -14.31613 -10.26273 -10.22332 -10.19550
 Alpha  occ. eigenvalues --  -10.19390 -10.19300 -10.19154 -10.19050 -10.18998
 Alpha  occ. eigenvalues --  -10.18780 -10.18291  -1.02993  -0.90369  -0.85199
 Alpha  occ. eigenvalues --   -0.77988  -0.76742  -0.74053  -0.67752  -0.64750
 Alpha  occ. eigenvalues --   -0.60414  -0.58625  -0.56875  -0.50655  -0.47992
 Alpha  occ. eigenvalues --   -0.47269  -0.45969  -0.45217  -0.44322  -0.43678
 Alpha  occ. eigenvalues --   -0.42017  -0.40861  -0.40259  -0.40036  -0.39234
 Alpha  occ. eigenvalues --   -0.36372  -0.36037  -0.34299  -0.33919  -0.33470
 Alpha  occ. eigenvalues --   -0.31372  -0.30601  -0.29606  -0.23842  -0.22871
 Alpha virt. eigenvalues --   -0.00939   0.06469   0.08705   0.10940   0.12310
 Alpha virt. eigenvalues --    0.12586   0.13613   0.13813   0.14337   0.15770
 Alpha virt. eigenvalues --    0.16345   0.17544   0.18193   0.18805   0.19412

 Mulliken charges:
               1
     1  O   -0.459285
     2  C    0.453268
     3  C   -0.169474
     4  C   -0.278627
     5  C   -0.280887
     6  C   -0.098082
     7  C   -0.280668
     8  C   -0.166270
     9  C   -0.288828
    10  C    0.180364
    11  N   -0.723351
    12  C   -0.265358
    13  H    0.143286
    14  H    0.134670
    15  H    0.152401
    16  H    0.143794
    17  H    0.140629
    18  H    0.127019
    19  H    0.144771
    20  H    0.136801
    21  H    0.141973
    22  H    0.134636
    23  H    0.127612
    24  H    0.290918
    25  H    0.291464
    26  H    0.146340
    27  H    0.120885
 Sum of Mulliken charges =  -0.00000

 Dipole moment (field-independent basis, Debye):
    X=             -2.1819    Y=              1.3242    Z=              0.9966  Tot=              2.7399
 Quadrupole moment (field-independent basis, Debye-Ang):
   XX=            -82.9544   YY=            -71.3001   ZZ=            -70.1794
   XY=              7.0397   XZ=             -4.3397   YZ=             -0.5807

  Exact polarizability: 109.273  -1.401 100.505  -1.487   0.538  97.874
 Approx polarizability: 160.090  -9.448 149.139  -1.543   1.508 143.987

                      1                      2                      3
                      A                      A                      A
 Frequencies --     97.6439               247.9911               268.6376
 Red. masses --      7.6762                 2.2336                 1.3959
 Frc consts  --      0.0431                 0.0809                 0.0594
 IR Inten    --      3.7214                 1.9590                22.4000

                      4                      5                      6
                      A                      A                      A
 Frequencies --    279.6502               309.0355               356.6446
 Red. masses --      1.9057                 2.0909                 2.9773
 Frc consts  --      0.0878                 0.1176                 0.2231
 IR Inten    --      4.7307                13.2074                 6.8360

                      7                      8                      9
                      A                      A                      A
 Frequencies --    369.2566               394.4948               403.9071
 Red. masses --      5.7052                 4.4449                 2.1981
 Frc consts  --      0.4583                 0.4076                 0.2113
 IR Inten    --      0.3721                 0.5081                 2.0009

                     10                     11                     12
                      A                      A                      A
 Frequencies --    445.2183               449.0571               476.9586
 Red. masses --      1.9535                 1.9711                 3.4114
 Frc consts  --      0.2281                 0.2342                 0.4572
 IR Inten    --      2.3015                 5.4020                 9.2237

                     13                     14                     15
                      A                      A                      A
 Frequencies --    523.1592               615.6517               635.0988
 Red. masses --      4.2548                 5.4906                 3.5459
 Frc consts  --      0.6861                 1.2261                 0.8427
 IR Inten    --      0.6299                 0.0419                 1.5380

                     16                     17                     18
                      A                      A                      A
 Frequencies --    714.7260               717.6868               789.5621
 Red. masses --      3.3341                 4.3420                 3.7122
 Frc consts  --      1.0035                 1.3177                 1.3635
 IR Inten    --      0.2374                 0.9294                 0.2076

                     19                     20                     21
                      A                      A                      A
 Frequencies --    802.7625               854.4897               891.5300
 Red. masses --      2.8154                 2.5611                 1.6816
 Frc consts  --      1.0690                 1.1018                 0.7875
 IR Inten    --      1.4721                 8.2472                65.1775

                     22                     23                     24
                      A                      A                      A
 Frequencies --    901.0870               904.5366               911.7254
 Red. masses --      1.7606                 1.5927                 1.9546
 Frc consts  --      0.8423                 0.7678                 0.9573
 IR Inten    --     11.9222                 6.2667                57.7001

                     25                     26                     27
                      A                      A                      A
 Frequencies --    941.4666               955.9349               978.0858
 Red. masses --      2.7388                 1.9523                 2.0251
 Frc consts  --      1.4303                 1.0511                 1.1415
 IR Inten    --      3.2061                22.5130                12.0347

                     28                     29                     30
                      A                      A                      A
 Frequencies --    992.8346              1019.5909              1043.2572
 Red. masses --      2.5739                 2.0121                 2.0374
 Frc consts  --      1.4948                 1.2324                 1.3065
 IR Inten    --      1.5051                 4.3364                 1.0079

                     31                     32                     33
                      A                      A                      A
 Frequencies --   1063.2294              1073.1771              1088.7766
 Red. masses --      1.9860                 1.7677                 1.7506
 Frc consts  --      1.3228                 1.1995                 1.2227
 IR Inten    --      8.6932                32.8899                 2.7870

                     34                     35                     36
                      A                      A                      A
 Frequencies --   1110.5361              1130.0006              1151.7120
 Red. masses --      1.5464                 1.2282                 1.1185
 Frc consts  --      1.1237                 0.9240                 0.8742
 IR Inten    --      0.5928                 1.1008                 0.7594

                     37                     38                     39
                      A                      A                      A
 Frequencies --   1168.5447              1176.3876              1220.5222
 Red. masses --      1.2489                 2.5176                 1.1136
 Frc consts  --      1.0048                 2.0527                 0.9774
 IR Inten    --      2.7154                 8.1619                 0.2958

                     40                     41                     42
                      A                      A                      A
 Frequencies --   1244.6796              1266.6317              1292.1204
 Red. masses --      1.7673                 1.4918                 1.6983
 Frc consts  --      1.6131                 1.4101                 1.6706
 IR Inten    --      4.6400                 7.0231                 3.4240

                     43                     44                     45
                      A                      A                      A
 Frequencies --   1297.5326              1324.2311              1332.9000
 Red. masses --      1.5946                 1.5873                 1.7633
 Frc consts  --      1.5818                 1.6399                 1.8458
 IR Inten    --      6.7370                 4.1886                 2.9724

                     46                     47                     48
                      A                      A                      A
 Frequencies --   1351.0420              1356.8986              1360.0341
 Red. masses --      1.5545                 1.4781                 1.7159
 Frc consts  --      1.6718                 1.6034                 1.8700
 IR Inten    --      1.6896                 0.4426                 0.7977

                     49                     50                     51
                      A                      A                      A
 Frequencies --   1379.7512              1391.4464              1395.6761
 Red. masses --      1.5822                 1.5054                 1.5047
 Frc consts  --      1.7747                 1.7172                 1.7269
 IR Inten    --      4.7539                 0.8448                 1.8343

                     52                     53                     54
                      A                      A                      A
 Frequencies --   1409.3204              1414.4682              1506.8978
 Red. masses --      1.6204                 1.6726                 1.0855
 Frc consts  --      1.8963                 1.9716                 1.4523
 IR Inten    --      0.3292                 0.1062                 0.1488

                     55                     56                     57
                      A                      A                      A
 Frequencies --   1513.7114              1520.9784              1524.6043
 Red. masses --      1.0865                 1.0928                 1.0959
 Frc consts  --      1.4667                 1.4895                 1.5009
 IR Inten    --      4.2988                 9.8245                 5.4628

                     58                     59                     60
                      A                      A                      A
 Frequencies --   1543.0559              1692.1791              1821.2063
 Red. masses --      1.0932                 1.0945                11.2605
 Frc consts  --      1.5335                 1.8465                22.0053
 IR Inten    --      0.3685                30.4889               217.6954

                     61                     62                     63
                      A                      A                      A
 Frequencies --   3018.3576              3023.4036              3032.0583
 Red. masses --      1.0613                 1.0639                 1.0642
 Frc consts  --      5.6970                 5.7298                 5.7644
 IR Inten    --     16.0931                44.7361                50.5133

                     64                     65                     66
                      A                      A                      A
 Frequencies --   3033.5879              3035.5497              3055.2442
 Red. masses --      1.0637                 1.0614                 1.0825
 Frc consts  --      5.7675                 5.7626                 5.9532
 IR Inten    --     16.3718                27.8558                65.0676

                     67                     68                     69
                      A                      A                      A
 Frequencies --   3059.4995              3072.2410              3076.6676
 Red. masses --      1.1040                 1.1046                 1.1043
 Frc consts  --      6.0885                 6.1426                 6.1586
 IR Inten    --     44.6593                 7.7647                44.1383

                     70                     71                     72
                      A                      A                      A
 Frequencies --   3078.4118              3083.4983              3089.0315
 Red. masses --      1.0994                 1.0986                 1.0865
 Frc consts  --      6.1387                 6.1541                 6.1081
 IR Inten    --     13.0239                61.3099                34.4855

                     73                     74                     75
                      A                      A                      A
 Frequencies --   3092.5247              3438.7970              3523.6285
 Red. masses --      1.0868                 1.0492                 1.0920
 Frc consts  --      6.1237                 7.3104                 7.9880
 IR Inten    --     24.2219                 3.5961                 1.0290

 - Thermochemistry -
 -------------------
 Temperature   298.150 Kelvin.  Pressure   1.00000 Atm.
 Atom     1 has atomic number  8 and mass  15.99491

 Molecular mass:   165.11536 amu.
 Principal axes and moments of inertia in atomic units:
                           1         2         3
     Eigenvalues --  1245.235201849.795382014.63015
           X            0.99844   0.05475  -0.01105
           Y           -0.05483   0.99847  -0.00767
           Z            0.01061   0.00827   0.99991
 This molecule is an asymmetric top.
 Rotational symmetry number  1.
 Warning -- assumption of classical behavior for rotation
           may cause significant error
 Rotational temperatures (Kelvin)      0.06956     0.04682     0.04299
 Rotational constants (GHZ):           1.44932     0.97564     0.89582
 Zero-point vibrational energy     634777.0 (Joules/Mol)
                                  151.71535 (Kcal/Mol)
 Warning -- explicit consideration of  14 degrees of freedom as
           vibrations may cause significant error
 Vibrational temperatures:    140.49   356.80   386.51   402.35   444.63
          (Kelvin)            513.13   531.28   567.59   581.13   640.57
                              646.09   686.24   752.71   885.79   913.77
                             1028.33  1032.59  1136.00  1155.00  1229.42
                             1282.71  1296.46  1301.43  1311.77  1354.56
                             1375.38  1407.25  1428.47  1466.96  1501.01
                             1529.75  1544.06  1566.51  1597.81  1625.82
                             1657.06  1681.28  1692.56  1756.06  1790.82
                             1822.40  1859.07  1866.86  1905.27  1917.75
                             1943.85  1952.27  1956.79  1985.15  2001.98
                             2008.07  2027.70  2035.10  2168.09  2177.89
                             2188.35  2193.57  2220.11  2434.67  2620.31
                             4342.74  4350.00  4362.46  4364.66  4367.48
                             4395.82  4401.94  4420.27  4426.64  4429.15
                             4436.47  4444.43  4449.45  4947.66  5069.72

 Zero-point correction=                           0.241774 (Hartree/Particle)
 Thermal correction to Energy=                    0.250985
 Thermal correction to Enthalpy=                  0.251929
 Thermal correction to Gibbs Free Energy=         0.208225
 Sum of electronic and zero-point Energies=           -519.841131
 Sum of electronic and thermal Energies=              -519.831919
 Sum of electronic and thermal Enthalpies=            -519.830975
 Sum of electronic and thermal Free Energies=         -519.874680

                     E (Thermal)             CV                S
                      KCal/Mol        Cal/Mol-Kelvin    Cal/Mol-Kelvin
 Total                  157.496             40.359             91.984
 Electronic               0.000              0.000              0.000
 Translational            0.889              2.981             41.213
 Rotational               0.889              2.981             29.919
 Vibrational            155.718             34.397             20.853
 Vibration     1          0.603              1.951              3.501
 Vibration     2          0.662              1.766              1.745
 Vibration     3          0.673              1.731              1.605
 Vibration     4          0.680              1.711              1.536
 Vibration     5          0.698              1.657              1.367
 Vibration     6          0.732              1.562              1.137
 Vibration     7          0.742              1.535              1.083
 Vibration     8          0.761              1.482              0.983
 Vibration     9          0.769              1.462              0.948
 Vibration    10          0.805              1.371              0.810
 Vibration    11          0.808              1.363              0.799
 Vibration    12          0.834              1.301              0.718
 Vibration    13          0.878              1.199              0.603
 Vibration    14          0.975              0.999              0.424

 Normal termination of Gaussian 16 at Thu Feb 22 11:13:05 2024.
