 Gaussian 16, Revision A.03,
 Gaussian 16:  EM64M-G16RevA.03 25-Dec-2016

 ---------------------
 # freq b3lyp/6-31g(d)
 ---------------------

 ---------
 good luck
 ---------
 Symbolic Z-matrix:
 Charge =  0 Multiplicity = 1

                         Standard orientation:
 ---------------------------------------------------------------------
 Center     Atomic      Atomic             Coordinates (Angstroms)
 Number     Number       Type             X           Y           Z
 ---------------------------------------------------------------------
      1          8           0       -0.895747    1.741173   -0.046681
      2          6           0       -0.631793    0.574411    0.095651
      3          6           0        0.665718   -0.179851    0.445636
      4          6           0        1.956416    0.299120   -0.210209
      5          6           0       -0.040487   -1.481040   -0.059532
      6          6           0       -1.406093   -0.733155   -0.139871
      7          1           0        0.782772   -0.201188    1.538941
      8          1           0        1.859134    0.319407   -1.301907
      9          1           0        2.796705   -0.357227    0.042966
     10          1           0        2.201699    1.313591    0.121837
     11          1           0       -0.002626   -2.338105    0.617053
     12          1           0        0.323975   -1.792657   -1.043281
     13          1           0       -2.090215   -0.963242    0.685736
     14          1           0       -1.968031   -0.786872   -1.077953
 ---------------------------------------------------------------------

 SCF Done:  E(RB3LYP) =  -270.545205083     A.U. after   13 cycles

 The electronic state is 1-A.
 Alpha  occ. eigenvalues --  -19.14335 -10.27154 -10.19904 -10.19526 -10.19409
 Alpha  occ. eigenvalues --  -10.18466  -1.04031  -0.84724  -0.73631  -0.63920
 Alpha  occ. eigenvalues --   -0.62456  -0.52305  -0.47321  -0.45888  -0.44426
 Alpha  occ. eigenvalues --   -0.41936  -0.39051  -0.38602  -0.37590  -0.34482
 Alpha  occ. eigenvalues --   -0.33478  -0.32451  -0.23822
 Alpha virt. eigenvalues --   -0.01901   0.09376   0.11939   0.12278   0.13136
 Alpha virt. eigenvalues --    0.15646   0.16270   0.17496   0.17997   0.18772
 Alpha virt. eigenvalues --    0.21236   0.26539   0.28123   0.28948   0.36353

 Mulliken charges:
               1
     1  O   -0.426007
     2  C    0.422659
     3  C   -0.155351
     4  C   -0.445806
     5  C   -0.301983
     6  C   -0.359850
     7  H    0.159185
     8  H    0.148873
     9  H    0.150404
    10  H    0.166384
    11  H    0.146497
    12  H    0.151252
    13  H    0.172542
    14  H    0.171203
 Sum of Mulliken charges =  -0.00000

 Dipole moment (field-independent basis, Debye):
    X=              0.7814    Y=             -2.6014    Z=              0.3433  Tot=              2.7379
 Quadrupole moment (field-independent basis, Debye-Ang):
   XX=            -35.8891   YY=            -41.5011   ZZ=            -34.6616
   XY=              2.9875   XZ=             -0.1167   YZ=              0.1257

  Exact polarizability:  56.120   0.775  55.400   1.403  -0.523  43.348
 Approx polarizability:  70.545  -2.549  83.162   2.379  -1.863  63.272

                      1                      2                      3
                      A                      A                      A
 Frequencies --     77.2622               195.5520               199.5271
 Red. masses --      2.1899                 1.1420                 2.7502
 Frc consts  --      0.0077                 0.0257                 0.0645
 IR Inten    --      2.3733                 0.8385                 2.3399

                      4                      5                      6
                      A                      A                      A
 Frequencies --    332.1427               439.2821               532.6948
 Red. masses --      2.3749                 2.7052                 2.4572
 Frc consts  --      0.1544                 0.3076                 0.4108
 IR Inten    --      0.7072                 2.1066                 0.6434

                      7                      8                      9
                      A                      A                      A
 Frequencies --    668.4954               739.6134               748.8514
 Red. masses --      3.7403                 2.4353                 1.4594
 Frc consts  --      0.9848                 0.7849                 0.4822
 IR Inten    --      2.7655                 1.0047                 3.5735

                     10                     11                     12
                      A                      A                      A
 Frequencies --    872.0151               928.9772               937.8154
 Red. masses --      2.4828                 1.2780                 2.8222
 Frc consts  --      1.1123                 0.6498                 1.4624
 IR Inten    --      1.5542                 1.4589                 3.7689

                     13                     14                     15
                      A                      A                      A
 Frequencies --    985.0760              1047.4364              1112.0698
 Red. masses --      1.0898                 3.3685                 2.5047
 Frc consts  --      0.6231                 2.1774                 1.8251
 IR Inten    --      0.7315                44.8584                36.7353

                     16                     17                     18
                      A                      A                      A
 Frequencies --   1141.5853              1172.7126              1216.3676
 Red. masses --      1.8771                 2.0323                 1.3836
 Frc consts  --      1.4413                 1.6467                 1.2061
 IR Inten    --      3.7088                 5.2587                 0.0428

                     19                     20                     21
                      A                      A                      A
 Frequencies --   1241.2604              1263.3466              1281.7917
 Red. masses --      1.1784                 1.4774                 1.5117
 Frc consts  --      1.0697                 1.3893                 1.4633
 IR Inten    --      2.4915                 1.3320                 6.5417

                     22                     23                     24
                      A                      A                      A
 Frequencies --   1350.2046              1433.8517              1471.1607
 Red. masses --      1.7116                 1.2257                 1.0955
 Frc consts  --      1.8384                 1.4847                 1.3970
 IR Inten    --      4.2833                 1.7410                 7.0942

                     25                     26                     27
                      A                      A                      A
 Frequencies --   1520.1406              1525.5095              1526.3989
 Red. masses --      1.0851                 1.0462                 1.0638
 Frc consts  --      1.4774                 1.4345                 1.4604
 IR Inten    --      1.2867                 4.1770                 6.1437

                     28                     29                     30
                      A                      A                      A
 Frequencies --   1884.3285              3034.6328              3049.2429
 Red. masses --     12.5894                 1.0831                 1.0351
 Frc consts  --     26.3371                 5.8766                 5.6702
 IR Inten    --    244.6106                10.3594                25.0406

                     31                     32                     33
                      A                      A                      A
 Frequencies --   3068.8168              3084.9835              3115.0352
 Red. masses --      1.0607                 1.0615                 1.1030
 Frc consts  --      5.8854                 5.9522                 6.3062
 IR Inten    --     12.7045                24.1989                25.1596

                     34                     35                     36
                      A                      A                      A
 Frequencies --   3120.2931              3124.8554              3141.4247
 Red. masses --      1.1043                 1.1023                 1.1076
 Frc consts  --      6.3346                 6.3418                 6.4397
 IR Inten    --      5.3573                19.1361                31.8345

 - Thermochemistry -
 -------------------
 Temperature   298.150 Kelvin.  Pressure   1.00000 Atm.
 Atom     1 has atomic number  8 and mass  15.99491

 Molecular mass:    84.05751 amu.
 Principal axes and moments of inertia in atomic units:
                           1         2         3
     Eigenvalues --   385.83091 462.63319 772.98205
           X            0.97029   0.24192  -0.00459
           Y           -0.24192   0.97030   0.00039
           Z            0.00455   0.00074   0.99999
 This molecule is an asymmetric top.
 Rotational symmetry number  1.
 Rotational temperatures (Kelvin)      0.22449     0.18722     0.11205
 Rotational constants (GHZ):           4.67754     3.90102     2.33478
 Zero-point vibrational energy     314526.7 (Joules/Mol)
                                   75.17368 (Kcal/Mol)
 Warning -- explicit consideration of   6 degrees of freedom as
           vibrations may cause significant error
 Vibrational temperatures:    111.16   281.36   287.08   477.88   632.03
          (Kelvin)            766.43   961.82  1064.14  1077.43  1254.64
                             1336.59  1349.31  1417.30  1507.03  1600.02
                             1642.49  1687.27  1750.08  1785.90  1817.67
                             1844.21  1942.64  2062.99  2116.67  2187.14
                             2194.87  2196.15  2711.13  4366.16  4387.18
                             4415.34  4438.60  4481.84  4489.41  4495.97
                             4519.81

 Zero-point correction=                           0.119797 (Hartree/Particle)
 Thermal correction to Energy=                    0.126090
 Thermal correction to Enthalpy=                  0.127035
 Thermal correction to Gibbs Free Energy=         0.089797
 Sum of electronic and zero-point Energies=           -270.425408
 Sum of electronic and thermal Energies=              -270.419115
 Sum of electronic and thermal Enthalpies=            -270.418171
 Sum of electronic and thermal Free Energies=         -270.455408

                     E (Thermal)             CV                S
                      KCal/Mol        Cal/Mol-Kelvin    Cal/Mol-Kelvin
 Total                   79.123             22.310             78.374
 Electronic               0.000              0.000              0.000
 Translational            0.889              2.981             39.200
 Rotational               0.889              2.981             26.426
 Vibrational             77.345             16.349             12.748
 Vibration     1          0.599              1.964              3.959
 Vibration     2          0.636              1.846              2.175
 Vibration     3          0.638              1.841              2.137
 Vibration     4          0.714              1.611              1.250
 Vibration     5          0.799              1.385              0.829
 Vibration     6          0.888              1.178              0.581

 Normal termination of Gaussian 16 at Wed Feb 21 18:07:42 2024.
