 Gaussian 16, Revision A.03,
 Gaussian 16:  EM64M-G16RevA.03 25-Dec-2016

 ---------------------
 # freq b3lyp/6-31g(d)
 ---------------------

 ---------
 good luck
 ---------
 Symbolic Z-matrix:
 Charge =  0 Multiplicity = 1

                         Standard orientation:
 ---------------------------------------------------------------------
 Center     Atomic      Atomic             Coordinates (Angstroms)
 Number     Number       Type             X           Y           Z
 ---------------------------------------------------------------------
      1          8           0        1.613844    1.832151   -0.091255
      2          6           0        0.746770    0.979461   -0.122338
      3          6           0       -0.692189    1.207854    0.316038
      4          6           0       -0.944735    0.294098    1.543041
      5          6           0       -0.681913   -1.194383    1.164311
      6          6           0       -0.275254   -1.292665   -0.321846
      7          6           0       -1.417854   -0.717516   -1.184597
      8          6           0       -1.641431    0.783836   -0.829597
      9          6           0        1.005587   -0.463414   -0.585982
     10          6           0        2.299155   -1.024787    0.020408
     11          1           0       -0.822857    2.262498    0.575596
     12          1           0       -0.303245    0.606870    2.374458
     13          1           0       -1.979881    0.438217    1.875648
     14          1           0       -1.580232   -1.800307    1.331701
     15          1           0        0.099359   -1.622426    1.801900
     16          1           0       -0.096878   -2.341492   -0.591201
     17          1           0       -1.171527   -0.828465   -2.247552
     18          1           0       -2.333594   -1.296358   -1.014726
     19          1           0       -1.476872    1.422597   -1.704851
     20          1           0       -2.674901    0.959256   -0.507475
     21          1           0        1.152726   -0.403825   -1.676576
     22          1           0        3.130271   -0.345270   -0.186899
     23          1           0        2.225055   -1.136109    1.107938
     24          1           0        2.533006   -2.007296   -0.404553
 ---------------------------------------------------------------------

 SCF Done:  E(RB3LYP) =  -426.618495776     A.U. after   13 cycles

 The electronic state is 1-A.
 Alpha  occ. eigenvalues --  -19.13003 -10.26184 -10.19277 -10.19257 -10.19145
 Alpha  occ. eigenvalues --  -10.19126 -10.19089 -10.18685 -10.18644 -10.17748
 Alpha  occ. eigenvalues --   -1.02869  -0.85943  -0.77598  -0.74439  -0.73725
 Alpha  occ. eigenvalues --   -0.66661  -0.61607  -0.59502  -0.56673  -0.50388
 Alpha  occ. eigenvalues --   -0.48978  -0.47166  -0.45859  -0.43036  -0.41578
 Alpha  occ. eigenvalues --   -0.40255  -0.39877  -0.38978  -0.37843  -0.37680
 Alpha  occ. eigenvalues --   -0.36928  -0.36127  -0.35401  -0.33017  -0.31238
 Alpha  occ. eigenvalues --   -0.30378  -0.29614  -0.22854
 Alpha virt. eigenvalues --   -0.00944   0.06650   0.09739   0.11167   0.12305
 Alpha virt. eigenvalues --    0.13838   0.14732   0.15503   0.16284   0.16538
 Alpha virt. eigenvalues --    0.17336   0.18121   0.18626   0.18837   0.19980

 Mulliken charges:
               1
     1  O   -0.466167
     2  C    0.455798
     3  C   -0.165374
     4  C   -0.286689
     5  C   -0.278040
     6  C   -0.098111
     7  C   -0.276085
     8  C   -0.285917
     9  C   -0.165496
    10  C   -0.452419
    11  H    0.139185
    12  H    0.151863
    13  H    0.143845
    14  H    0.137587
    15  H    0.143227
    16  H    0.120039
    17  H    0.137605
    18  H    0.136381
    19  H    0.149160
    20  H    0.143277
    21  H    0.153941
    22  H    0.173575
    23  H    0.146547
    24  H    0.142265
 Sum of Mulliken charges =  -0.00000

 Dipole moment (field-independent basis, Debye):
    X=             -2.0738    Y=             -2.1201    Z=             -0.0474  Tot=              2.9661
 Quadrupole moment (field-independent basis, Debye-Ang):
   XX=            -63.5690   YY=            -65.6147   ZZ=            -59.5205
   XY=             -5.2887   XZ=             -0.2942   YZ=              0.2840

  Exact polarizability:  94.484   0.396  88.433  -0.734   0.975  81.188
 Approx polarizability: 132.077   8.351 128.729  -1.706   1.177 117.885

                      1                      2                      3
                      A                      A                      A
 Frequencies --     42.8963               145.8854               199.2470
 Red. masses --      2.9928                 2.5698                 1.3051
 Frc consts  --      0.0032                 0.0322                 0.0305
 IR Inten    --      1.9436                 1.3997                 0.3210

                      4                      5                      6
                      A                      A                      A
 Frequencies --    233.0249               258.8772               270.1031
 Red. masses --      1.6594                 2.1402                 2.2562
 Frc consts  --      0.0531                 0.0845                 0.0970
 IR Inten    --      0.4843                 1.0223                 1.7493

                      7                      8                      9
                      A                      A                      A
 Frequencies --    358.4857               394.7670               469.0516
 Red. masses --      2.4896                 4.0855                 4.0652
 Frc consts  --      0.1885                 0.3751                 0.5270
 IR Inten    --      0.2518                 5.6336                 2.9216

                     10                     11                     12
                      A                      A                      A
 Frequencies --    497.9038               527.3264               596.9156
 Red. masses --      3.9433                 3.8879                 5.2721
 Frc consts  --      0.5760                 0.6370                 1.1068
 IR Inten    --      3.3152                 0.6427                 0.6704

                     13                     14                     15
                      A                      A                      A
 Frequencies --    694.9294               771.1963               805.0257
 Red. masses --      4.3262                 3.0279                 2.3917
 Frc consts  --      1.2309                 1.0610                 0.9132
 IR Inten    --      2.8802                 1.6041                 1.6475

                     16                     17                     18
                      A                      A                      A
 Frequencies --    818.1370               823.9244               867.6951
 Red. masses --      1.4382                 1.7212                 1.8411
 Frc consts  --      0.5672                 0.6884                 0.8167
 IR Inten    --      0.3503                 1.6071                 8.4253

                     19                     20                     21
                      A                      A                      A
 Frequencies --    873.9246               888.5342               958.1475
 Red. masses --      2.5970                 2.5687                 1.7213
 Frc consts  --      1.1686                 1.1948                 0.9310
 IR Inten    --      0.6301                 1.5935                 0.1909

                     22                     23                     24
                      A                      A                      A
 Frequencies --    972.7581              1011.5950              1040.8727
 Red. masses --      2.3454                 1.5140                 2.5165
 Frc consts  --      1.3076                 0.9128                 1.6064
 IR Inten    --      2.2092                 0.5415                 0.8796

                     25                     26                     27
                      A                      A                      A
 Frequencies --   1049.1504              1071.8999              1092.6809
 Red. masses --      2.3162                 2.5460                 1.8886
 Frc consts  --      1.5021                 1.7235                 1.3285
 IR Inten    --     13.9020                 1.5734                10.4964

                     28                     29                     30
                      A                      A                      A
 Frequencies --   1122.4495              1128.7597              1140.2365
 Red. masses --      1.5850                 2.0653                 1.3420
 Frc consts  --      1.1766                 1.5504                 1.0280
 IR Inten    --      8.1128                 2.4033                 7.8143

                     31                     32                     33
                      A                      A                      A
 Frequencies --   1171.6006              1218.4825              1254.4199
 Red. masses --      1.0494                 1.5984                 1.5199
 Frc consts  --      0.8487                 1.3982                 1.4092
 IR Inten    --      0.2702                 7.7012                 9.4570

                     34                     35                     36
                      A                      A                      A
 Frequencies --   1261.0239              1273.1172              1306.7584
 Red. masses --      1.2657                 1.1544                 1.4965
 Frc consts  --      1.1859                 1.1024                 1.5057
 IR Inten    --      1.2412                 0.0281                 0.3411

                     37                     38                     39
                      A                      A                      A
 Frequencies --   1315.0663              1338.5865              1350.6697
 Red. masses --      1.5157                 1.4835                 1.4273
 Frc consts  --      1.5444                 1.5662                 1.5341
 IR Inten    --      1.3625                 0.4566                 0.3013

                     40                     41                     42
                      A                      A                      A
 Frequencies --   1355.6766              1374.2165              1385.4148
 Red. masses --      1.4112                 1.7000                 1.5222
 Frc consts  --      1.5281                 1.8915                 1.7214
 IR Inten    --      0.2440                 6.6421                 8.8528

                     43                     44                     45
                      A                      A                      A
 Frequencies --   1394.3957              1397.3592              1431.7140
 Red. masses --      1.5090                 1.3908                 1.2222
 Frc consts  --      1.7287                 1.6000                 1.4761
 IR Inten    --      1.0938                 0.2192                 6.0267

                     46                     47                     48
                      A                      A                      A
 Frequencies --   1514.0935              1523.5048              1524.4907
 Red. masses --      1.0725                 1.0640                 1.0636
 Frc consts  --      1.4486                 1.4551                 1.4563
 IR Inten    --      0.1928                 4.1070                 2.5175

                     49                     50                     51
                      A                      A                      A
 Frequencies --   1531.7770              1537.2992              1549.9100
 Red. masses --      1.0703                 1.0736                 1.0891
 Frc consts  --      1.4795                 1.4949                 1.5414
 IR Inten    --      2.3461                 7.6846                 5.2354

                     52                     53                     54
                      A                      A                      A
 Frequencies --   1816.8671              3002.5019              3041.8721
 Red. masses --     11.8153                 1.0820                 1.0666
 Frc consts  --     22.9795                 5.7472                 5.8147
 IR Inten    --    183.7129                14.3845                 6.4663

                     55                     56                     57
                      A                      A                      A
 Frequencies --   3047.0006              3050.9871              3054.7929
 Red. masses --      1.0632                 1.0687                 1.0394
 Frc consts  --      5.8160                 5.8610                 5.7150
 IR Inten    --      0.1729                57.7757                27.0868

                     58                     59                     60
                      A                      A                      A
 Frequencies --   3057.3022              3065.9856              3074.8967
 Red. masses --      1.0623                 1.0684                 1.1052
 Frc consts  --      5.8504                 5.9173                 6.1568
 IR Inten    --     64.3384                59.9945                 3.5476

                     61                     62                     63
                      A                      A                      A
 Frequencies --   3080.6156              3097.4640              3100.7022
 Red. masses --      1.1041                 1.1049                 1.0883
 Frc consts  --      6.1733                 6.2460                 6.1647
 IR Inten    --      2.3394                40.9975                34.8016

                     64                     65                     66
                      A                      A                      A
 Frequencies --   3102.7622              3117.9719              3143.0124
 Red. masses --      1.1026                 1.1024                 1.1011
 Frc consts  --      6.2544                 6.3145                 6.4087
 IR Inten    --     55.5270                33.6512                12.9290

 - Thermochemistry -
 -------------------
 Temperature   298.150 Kelvin.  Pressure   1.00000 Atm.
 Atom     1 has atomic number  8 and mass  15.99491

 Molecular mass:   138.10447 amu.
 Principal axes and moments of inertia in atomic units:
                           1         2         3
     Eigenvalues --  1005.827401271.627491524.90742
           X            0.99148  -0.13007   0.00684
           Y            0.13007   0.99150   0.00123
           Z           -0.00695  -0.00033   0.99998
 This molecule is an asymmetric top.
 Rotational symmetry number  1.
 Warning -- assumption of classical behavior for rotation
           may cause significant error
 Rotational temperatures (Kelvin)      0.08611     0.06811     0.05680
 Rotational constants (GHZ):           1.79429     1.41924     1.18351
 Zero-point vibrational energy     568170.6 (Joules/Mol)
                                  135.79604 (Kcal/Mol)
 Warning -- explicit consideration of  12 degrees of freedom as
           vibrations may cause significant error
 Vibrational temperatures:     61.72   209.90   286.67   335.27   372.47
          (Kelvin)            388.62   515.78   567.98   674.86   716.37
                              758.71   858.83   999.85  1109.58  1158.25
                             1177.12  1185.44  1248.42  1257.38  1278.40
                             1378.56  1399.58  1455.46  1497.58  1509.49
                             1542.22  1572.12  1614.95  1624.03  1640.55
                             1685.67  1753.12  1804.83  1814.33  1831.73
                             1880.13  1892.09  1925.93  1943.31  1950.52
                             1977.19  1993.30  2006.22  2010.49  2059.92
                             2178.44  2191.98  2193.40  2203.89  2211.83
                             2229.97  2614.07  4319.93  4376.58  4383.95
                             4389.69  4395.17  4398.78  4411.27  4424.09
                             4432.32  4456.56  4461.22  4464.18  4486.07
                             4522.09

 Zero-point correction=                           0.216405 (Hartree/Particle)
 Thermal correction to Energy=                    0.225339
 Thermal correction to Enthalpy=                  0.226284
 Thermal correction to Gibbs Free Energy=         0.182471
 Sum of electronic and zero-point Energies=           -426.402091
 Sum of electronic and thermal Energies=              -426.393156
 Sum of electronic and thermal Enthalpies=            -426.392212
 Sum of electronic and thermal Free Energies=         -426.436025

                     E (Thermal)             CV                S
                      KCal/Mol        Cal/Mol-Kelvin    Cal/Mol-Kelvin
 Total                  141.403             35.574             92.211
 Electronic               0.000              0.000              0.000
 Translational            0.889              2.981             40.680
 Rotational               0.889              2.981             29.057
 Vibrational            139.625             29.612             22.474
 Vibration     1          0.595              1.980              5.121
 Vibration     2          0.617              1.907              2.725
 Vibration     3          0.637              1.841              2.140
 Vibration     4          0.654              1.790              1.856
 Vibration     5          0.668              1.748              1.669
 Vibration     6          0.674              1.728              1.596
 Vibration     7          0.733              1.558              1.129
 Vibration     8          0.762              1.481              0.982
 Vibration     9          0.826              1.319              0.740
 Vibration    10          0.853              1.255              0.663
 Vibration    11          0.882              1.190              0.593
 Vibration    12          0.955              1.038              0.455

 Normal termination of Gaussian 16 at Wed Feb 21 19:24:21 2024.
