 Gaussian 16, Revision A.03,
 Gaussian 16:  EM64M-G16RevA.03 25-Dec-2016

 ---------------------
 # freq b3lyp/6-31g(d)
 ---------------------

 ---------
 good luck
 ---------
 Symbolic Z-matrix:
 Charge =  0 Multiplicity = 1

                         Standard orientation:
 ---------------------------------------------------------------------
 Center     Atomic      Atomic             Coordinates (Angstroms)
 Number     Number       Type             X           Y           Z
 ---------------------------------------------------------------------
      1          8           0        4.754965   -1.884629   -0.142808
      2          6           0        4.087801   -0.885930   -0.331363
      3          6           0        2.569533   -0.937721   -0.470524
      4          6           0        1.865407    0.083944    0.463328
      5          6           0        0.354634    0.045179    0.302736
      6          6           0       -0.263056    0.398194   -0.907184
      7          6           0       -1.646716    0.353058   -1.048076
      8          6           0       -2.445418   -0.050475    0.026045
      9          6           0       -3.942122   -0.053947   -0.117082
     10          9           0       -4.471659    1.173528    0.102570
     11          9           0       -4.325386   -0.423142   -1.360556
     12          9           0       -4.532348   -0.898064    0.757888
     13          6           0       -1.849445   -0.403172    1.237379
     14          6           0       -0.462263   -0.354400    1.367679
     15          6           0        2.456366    1.496246    0.258347
     16          6           0        3.974979    1.508520    0.483086
     17          6           0        4.699269    0.504508   -0.437525
     18          1           0        2.317296   -0.700744   -1.514876
     19          1           0        2.233252   -1.959180   -0.271521
     20          1           0        2.090686   -0.215246    1.496770
     21          1           0        0.341411    0.708338   -1.755503
     22          1           0       -2.108044    0.620521   -1.993436
     23          1           0       -2.465498   -0.723811    2.070836
     24          1           0       -0.006196   -0.637967    2.313050
     25          1           0        2.232186    1.844869   -0.759903
     26          1           0        1.967351    2.199538    0.942925
     27          1           0        4.374560    2.515935    0.317884
     28          1           0        4.189928    1.255792    1.530493
     29          1           0        4.596657    0.838217   -1.481653
     30          1           0        5.767403    0.435844   -0.212797
 ---------------------------------------------------------------------

 SCF Done:  E(RB3LYP) =  -877.978464309     A.U. after   14 cycles

 The electronic state is 1-A.
 Alpha  occ. eigenvalues --  -24.72435 -24.72272 -24.71741 -19.14061 -10.43161
 Alpha  occ. eigenvalues --  -10.27675 -10.21791 -10.21668 -10.21587 -10.21211
 Alpha  occ. eigenvalues --  -10.21137 -10.20774 -10.20668 -10.20331 -10.20147
 Alpha  occ. eigenvalues --  -10.20032 -10.19837  -1.29883  -1.21385  -1.20847
 Alpha  occ. eigenvalues --   -1.03954  -0.88243  -0.84608  -0.79790  -0.76483
 Alpha  occ. eigenvalues --   -0.75726  -0.73553  -0.69539  -0.64553  -0.63180
 Alpha  occ. eigenvalues --   -0.61667  -0.59079  -0.57704  -0.57521  -0.56782
 Alpha  occ. eigenvalues --   -0.53992  -0.49293  -0.48781  -0.47405  -0.46733
 Alpha  occ. eigenvalues --   -0.45938  -0.45274  -0.45036  -0.44530  -0.44024
 Alpha  occ. eigenvalues --   -0.43692  -0.42767  -0.41833  -0.41066  -0.40717
 Alpha  occ. eigenvalues --   -0.39543  -0.39450  -0.38054  -0.37236  -0.36754
 Alpha  occ. eigenvalues --   -0.36423  -0.35693  -0.34129  -0.33771  -0.33076
 Alpha  occ. eigenvalues --   -0.26942  -0.26503  -0.24193
 Alpha virt. eigenvalues --   -0.03383  -0.02074  -0.01490   0.07836   0.08601
 Alpha virt. eigenvalues --    0.09114   0.11507   0.12502   0.12706   0.13757
 Alpha virt. eigenvalues --    0.14295   0.14850   0.15415   0.16065   0.16428

 Mulliken charges:
               1
     1  O   -0.441321
     2  C    0.451211
     3  C   -0.345515
     4  C   -0.196905
     5  C    0.198241
     6  C   -0.189205
     7  C   -0.160375
     8  C   -0.007509
     9  C    0.782829
    10  F   -0.262501
    11  F   -0.270746
    12  F   -0.270483
    13  C   -0.158726
    14  C   -0.199941
    15  C   -0.264319
    16  C   -0.275938
    17  C   -0.343276
    18  H    0.155299
    19  H    0.171144
    20  H    0.140382
    21  H    0.134451
    22  H    0.154891
    23  H    0.155975
    24  H    0.138276
    25  H    0.136217
    26  H    0.150028
    27  H    0.148522
    28  H    0.148061
    29  H    0.154483
    30  H    0.166746
 Sum of Mulliken charges =  -0.00000

 Dipole moment (field-independent basis, Debye):
    X=              1.2137    Y=              2.5147    Z=             -0.0051  Tot=              2.7922
 Quadrupole moment (field-independent basis, Debye-Ang):
   XX=           -118.1614   YY=           -102.5985   ZZ=            -90.4094
   XY=             13.9016   XZ=             -1.6980   YZ=             -2.1960

  Exact polarizability: 185.306   1.529  98.879   0.509 -10.568 116.667
 Approx polarizability: 239.411  -3.403 152.850   3.686 -27.505 203.934

                      1                      2                      3
                      A                      A                      A
 Frequencies --     16.4704                32.7146                49.0138
 Red. masses --     10.0403                 4.8190                 6.2686
 Frc consts  --      0.0016                 0.0030                 0.0089
 IR Inten    --      0.6012                 0.4015                 1.3925

                      4                      5                      6
                      A                      A                      A
 Frequencies --     67.0916                97.6988               129.7466
 Red. masses --      4.0947                 3.6234                 7.5849
 Frc consts  --      0.0109                 0.0204                 0.0752
 IR Inten    --      1.3198                 1.8139                 0.1977

                      7                      8                      9
                      A                      A                      A
 Frequencies --    154.7277               196.7714               231.2903
 Red. masses --      4.5282                 7.2003                 2.9260
 Frc consts  --      0.0639                 0.1643                 0.0922
 IR Inten    --      0.2924                 0.4525                 1.7822

                     10                     11                     12
                      A                      A                      A
 Frequencies --    266.5375               291.3537               381.4317
 Red. masses --      5.8514                 2.7254                 5.8447
 Frc consts  --      0.2449                 0.1363                 0.5010
 IR Inten    --      0.3882                 0.7584                 3.0562

                     13                     14                     15
                      A                      A                      A
 Frequencies --    392.8332               407.8772               411.6426
 Red. masses --      5.6853                 3.5492                 4.3622
 Frc consts  --      0.5169                 0.3479                 0.4355
 IR Inten    --      1.6363                 0.7251                 2.5995

                     16                     17                     18
                      A                      A                      A
 Frequencies --    421.5711               463.7413               473.5886
 Red. masses --      3.9732                 4.3242                 1.6972
 Frc consts  --      0.4160                 0.5479                 0.2243
 IR Inten    --      1.0822                 8.3387                 0.7578

                     19                     20                     21
                      A                      A                      A
 Frequencies --    505.2945               532.6816               574.5654
 Red. masses --      3.8887                 4.3955                11.8237
 Frc consts  --      0.5850                 0.7348                 2.2998
 IR Inten    --      5.2828                 3.5122                 0.0690

                     22                     23                     24
                      A                      A                      A
 Frequencies --    610.9540               626.1867               653.1588
 Red. masses --      3.3939                 4.5071                 6.9767
 Frc consts  --      0.7464                 1.0412                 1.7536
 IR Inten    --     10.3980                 7.1492                 1.1301

                     25                     26                     27
                      A                      A                      A
 Frequencies --    671.3433               754.0157               758.7871
 Red. masses --      5.0660                 5.0326                 2.7159
 Frc consts  --      1.3452                 1.6858                 0.9213
 IR Inten    --      6.0964                 0.0575                 4.3130

                     28                     29                     30
                      A                      A                      A
 Frequencies --    766.6936               814.9775               853.1708
 Red. masses --      3.4960                 3.7142                 1.7020
 Frc consts  --      1.2108                 1.4535                 0.7299
 IR Inten    --      4.4429                 1.2017                26.4445

                     31                     32                     33
                      A                      A                      A
 Frequencies --    858.5901               870.8742               881.7099
 Red. masses --      1.3241                 1.6079                 2.0140
 Frc consts  --      0.5751                 0.7185                 0.9225
 IR Inten    --      6.6999                 1.5037                 2.0600

                     34                     35                     36
                      A                      A                      A
 Frequencies --    899.3049               922.3345               970.0695
 Red. masses --      1.8770                 2.5558                 1.3391
 Frc consts  --      0.8944                 1.2810                 0.7424
 IR Inten    --     10.1020                 3.6904                 0.0871

                     37                     38                     39
                      A                      A                      A
 Frequencies --    973.7083               991.0249              1035.3983
 Red. masses --      1.3191                 2.5450                 3.6773
 Frc consts  --      0.7368                 1.4726                 2.3227
 IR Inten    --      0.7881                10.4422                34.1771

                     40                     41                     42
                      A                      A                      A
 Frequencies --   1046.3860              1076.0318              1089.3249
 Red. masses --      1.9040                 1.2029                 2.8094
 Frc consts  --      1.2283                 0.8206                 1.9642
 IR Inten    --      3.6926                11.2603                 4.1402

                     43                     44                     45
                      A                      A                      A
 Frequencies --   1094.0943              1119.8784              1146.3824
 Red. masses --      3.8674                 2.1207                 1.6444
 Frc consts  --      2.7276                 1.5670                 1.2732
 IR Inten    --    105.3262                 8.5760                33.5633

                     46                     47                     48
                      A                      A                      A
 Frequencies --   1184.4120              1211.2645              1212.6138
 Red. masses --     11.7610                 1.7852                 4.7108
 Frc consts  --      9.7207                 1.5432                 4.0812
 IR Inten    --    252.1095                32.1864               133.6356

                     49                     50                     51
                      A                      A                      A
 Frequencies --   1221.3604              1228.5762              1248.2789
 Red. masses --      1.2965                 1.8183                 1.7208
 Frc consts  --      1.1395                 1.6171                 1.5798
 IR Inten    --     10.1122                 0.4426                50.9476

                     52                     53                     54
                      A                      A                      A
 Frequencies --   1254.9292              1286.0582              1306.2810
 Red. masses --      1.5327                 1.5868                 1.2609
 Frc consts  --      1.4221                 1.5463                 1.2677
 IR Inten    --      1.8903                21.6852                 1.0707

                     55                     56                     57
                      A                      A                      A
 Frequencies --   1332.8519              1345.3904              1354.7917
 Red. masses --      1.6588                 5.0575                 1.4428
 Frc consts  --      1.7363                 5.3937                 1.5603
 IR Inten    --     14.6421               385.2660                 3.6669

                     58                     59                     60
                      A                      A                      A
 Frequencies --   1357.0769              1365.1360              1380.6992
 Red. masses --      1.9169                 1.4361                 1.5264
 Frc consts  --      2.0800                 1.5769                 1.7144
 IR Inten    --     10.1333                 4.4651                 6.0976

                     61                     62                     63
                      A                      A                      A
 Frequencies --   1392.7964              1410.5607              1467.8023
 Red. masses --      1.4890                 1.6947                 2.3600
 Frc consts  --      1.7019                 1.9867                 2.9957
 IR Inten    --     10.3250                 2.4237                18.1281

                     64                     65                     66
                      A                      A                      A
 Frequencies --   1491.0317              1498.3047              1518.3546
 Red. masses --      1.0992                 1.0882                 1.0851
 Frc consts  --      1.4398                 1.4393                 1.4739
 IR Inten    --      6.0385                 6.1630                 7.9562

                     67                     68                     69
                      A                      A                      A
 Frequencies --   1528.4007              1565.6911              1635.2506
 Red. masses --      1.0950                 2.5200                 6.4134
 Frc consts  --      1.5072                 3.6397                10.1043
 IR Inten    --      1.4113                 0.1277                 3.2456

                     70                     71                     72
                      A                      A                      A
 Frequencies --   1676.3711              1820.2027              3020.2025
 Red. masses --      5.7625                11.0146                 1.0744
 Frc consts  --      9.5412                21.5011                 5.7741
 IR Inten    --     30.7733               208.1941                 4.6124

                     73                     74                     75
                      A                      A                      A
 Frequencies --   3023.7985              3032.1461              3038.1951
 Red. masses --      1.0747                 1.0667                 1.0697
 Frc consts  --      5.7896                 5.7781                 5.8175
 IR Inten    --      1.8134                10.6209                 7.4207

                     76                     77                     78
                      A                      A                      A
 Frequencies --   3043.5339              3085.1301              3089.2927
 Red. masses --      1.0636                 1.0956                 1.1035
 Frc consts  --      5.8047                 6.1441                 6.2047
 IR Inten    --     55.4456                36.3509                36.8882

                     79                     80                     81
                      A                      A                      A
 Frequencies --   3121.5870              3123.5307              3187.3871
 Red. masses --      1.0943                 1.0958                 1.0893
 Frc consts  --      6.2827                 6.2992                 6.5201
 IR Inten    --     20.6041                12.5856                10.1118

                     82                     83                     84
                      A                      A                      A
 Frequencies --   3189.0108              3217.9409              3223.7407
 Red. masses --      1.0883                 1.0931                 1.0927
 Frc consts  --      6.5206                 6.6689                 6.6908
 IR Inten    --     12.5630                 5.7229                 3.9857

 - Thermochemistry -
 -------------------
 Temperature   298.150 Kelvin.  Pressure   1.00000 Atm.
 Atom     1 has atomic number  8 and mass  15.99491

 Molecular mass:   242.09185 amu.
 Principal axes and moments of inertia in atomic units:
                           1         2         3
     Eigenvalues --  1288.40939********************
           X            0.99995   0.00978  -0.00201
           Y           -0.00985   0.99926  -0.03730
           Z            0.00164   0.03732   0.99930
 This molecule is an asymmetric top.
 Rotational symmetry number  1.
 Warning -- assumption of classical behavior for rotation
           may cause significant error
 Rotational temperatures (Kelvin)      0.06723     0.00824     0.00808
 Rotational constants (GHZ):           1.40075     0.17163     0.16836
 Zero-point vibrational energy     623691.2 (Joules/Mol)
                                  149.06577 (Kcal/Mol)
 Warning -- explicit consideration of  22 degrees of freedom as
           vibrations may cause significant error
 Vibrational temperatures:     23.70    47.07    70.52    96.53   140.57
          (Kelvin)            186.68   222.62   283.11   332.78   383.49
                              419.19   548.80   565.20   586.84   592.26
                              606.55   667.22   681.39   727.01   766.41
                              826.67   879.03   900.94   939.75   965.91
                             1084.86  1091.73  1103.10  1172.57  1227.52
                             1235.32  1252.99  1268.58  1293.90  1327.03
                             1395.71  1400.95  1425.86  1489.71  1505.52
                             1548.17  1567.30  1574.16  1611.26  1649.39
                             1704.10  1742.74  1744.68  1757.27  1767.65
                             1795.99  1805.56  1850.35  1879.45  1917.68
                             1935.72  1949.24  1952.53  1964.13  1986.52
                             2003.92  2029.48  2111.84  2145.26  2155.73
                             2184.57  2199.03  2252.68  2352.76  2411.92
                             2618.87  4345.40  4350.57  4362.58  4371.29
                             4378.97  4438.81  4444.80  4491.27  4494.06
                             4585.94  4588.28  4629.90  4638.24

 Zero-point correction=                           0.237551 (Hartree/Particle)
 Thermal correction to Energy=                    0.252245
 Thermal correction to Enthalpy=                  0.253189
 Thermal correction to Gibbs Free Energy=         0.193165
 Sum of electronic and zero-point Energies=           -877.740913
 Sum of electronic and thermal Energies=              -877.726219
 Sum of electronic and thermal Enthalpies=            -877.725275
 Sum of electronic and thermal Free Energies=         -877.785299

                     E (Thermal)             CV                S
                      KCal/Mol        Cal/Mol-Kelvin    Cal/Mol-Kelvin
 Total                  158.286             56.295            126.331
 Electronic               0.000              0.000              0.000
 Translational            0.889              2.981             42.353
 Rotational               0.889              2.981             33.340
 Vibrational            156.509             50.333             50.637
 Vibration     1          0.593              1.986              7.020
 Vibration     2          0.594              1.983              5.658
 Vibration     3          0.595              1.978              4.857
 Vibration     4          0.598              1.970              4.237
 Vibration     5          0.603              1.951              3.500
 Vibration     6          0.612              1.924              2.950
 Vibration     7          0.620              1.897              2.613
 Vibration     8          0.636              1.844              2.163
 Vibration     9          0.653              1.793              1.869
 Vibration    10          0.672              1.734              1.619
 Vibration    11          0.687              1.690              1.466
 Vibration    12          0.751              1.510              1.033
 Vibration    13          0.760              1.485              0.989
 Vibration    14          0.772              1.453              0.934
 Vibration    15          0.776              1.445              0.921
 Vibration    16          0.784              1.423              0.887
 Vibration    17          0.821              1.330              0.755
 Vibration    18          0.830              1.309              0.728
 Vibration    19          0.861              1.238              0.645
 Vibration    20          0.888              1.178              0.581
 Vibration    21          0.931              1.086              0.496
 Vibration    22          0.970              1.009              0.431

 Normal termination of Gaussian 16 at Fri Feb 23 23:17:52 2024.
