 Gaussian 16, Revision A.03,
 Gaussian 16:  EM64M-G16RevA.03 25-Dec-2016

 ---------------------
 # freq b3lyp/6-31g(d)
 ---------------------

 ---------
 good luck
 ---------
 Symbolic Z-matrix:
 Charge =  0 Multiplicity = 1

                         Standard orientation:
 ---------------------------------------------------------------------
 Center     Atomic      Atomic             Coordinates (Angstroms)
 Number     Number       Type             X           Y           Z
 ---------------------------------------------------------------------
      1          8           0        3.316899    2.321004   -0.227024
      2          6           0        3.379767    1.107592   -0.151342
      3          6           0        2.930455    0.200860   -1.294730
      4          6           0        2.034923   -0.982786   -0.852418
      5          6           0        0.582679   -0.606736   -0.568974
      6          6           0        0.149823    0.707349   -0.345297
      7          6           0       -1.192345    0.985659   -0.080600
      8          6           0       -2.128359   -0.046631   -0.036628
      9          6           0       -3.583642    0.259453    0.184140
     10          9           0       -4.236662    0.463005   -0.985138
     11          9           0       -3.759550    1.374034    0.928502
     12          9           0       -4.220988   -0.753829    0.813732
     13          6           0       -1.715740   -1.363579   -0.262461
     14          6           0       -0.377128   -1.632048   -0.525312
     15          6           0        2.690529   -1.709215    0.352691
     16          6           0        2.992694   -0.757997    1.517163
     17          6           0        3.921676    0.391758    1.076700
     18          1           0        3.845438   -0.224393   -1.733894
     19          1           0        2.454902    0.814351   -2.065138
     20          1           0        2.011376   -1.697721   -1.685772
     21          1           0        0.851395    1.533614   -0.380508
     22          1           0       -1.507097    2.009043    0.095619
     23          1           0       -2.439998   -2.171209   -0.231176
     24          1           0       -0.068950   -2.659514   -0.706069
     25          1           0        2.040722   -2.524529    0.690513
     26          1           0        3.626509   -2.173499    0.009954
     27          1           0        3.456203   -1.308676    2.343936
     28          1           0        2.054923   -0.340305    1.905075
     29          1           0        4.076140    1.129012    1.869753
     30          1           0        4.906059   -0.025175    0.812453
 ---------------------------------------------------------------------

 SCF Done:  E(RB3LYP) =  -877.976580135     A.U. after   14 cycles

 The electronic state is 1-A.
 Alpha  occ. eigenvalues --  -24.72113 -24.72097 -24.71475 -19.14246 -10.42895
 Alpha  occ. eigenvalues --  -10.27924 -10.21716 -10.21463 -10.21406 -10.20902
 Alpha  occ. eigenvalues --  -10.20752 -10.20429 -10.20186 -10.20158 -10.20149
 Alpha  occ. eigenvalues --  -10.20065 -10.19859  -1.29628  -1.21123  -1.20597
 Alpha  occ. eigenvalues --   -1.04162  -0.87955  -0.84497  -0.79379  -0.76228
 Alpha  occ. eigenvalues --   -0.75737  -0.73549  -0.69371  -0.64638  -0.62742
 Alpha  occ. eigenvalues --   -0.61550  -0.58906  -0.57450  -0.57248  -0.56462
 Alpha  occ. eigenvalues --   -0.53850  -0.49362  -0.48361  -0.47363  -0.46627
 Alpha  occ. eigenvalues --   -0.45913  -0.45044  -0.44949  -0.44504  -0.43667
 Alpha  occ. eigenvalues --   -0.43263  -0.42220  -0.41613  -0.41190  -0.40794
 Alpha  occ. eigenvalues --   -0.39897  -0.39287  -0.37737  -0.37412  -0.36664
 Alpha  occ. eigenvalues --   -0.35967  -0.35662  -0.34041  -0.33413  -0.32967
 Alpha  occ. eigenvalues --   -0.26588  -0.26069  -0.24471
 Alpha virt. eigenvalues --   -0.03300  -0.02111  -0.01285   0.07433   0.09961
 Alpha virt. eigenvalues --    0.10244   0.11221   0.12309   0.13154   0.14255
 Alpha virt. eigenvalues --    0.14826   0.15226   0.15483   0.15766   0.16326

 Mulliken charges:
               1
     1  O   -0.456833
     2  C    0.467065
     3  C   -0.365163
     4  C   -0.183315
     5  C    0.176621
     6  C   -0.212572
     7  C   -0.166863
     8  C   -0.006560
     9  C    0.782164
    10  F   -0.261910
    11  F   -0.270319
    12  F   -0.272058
    13  C   -0.158587
    14  C   -0.188717
    15  C   -0.266824
    16  C   -0.277903
    17  C   -0.342279
    18  H    0.161572
    19  H    0.172328
    20  H    0.146092
    21  H    0.167549
    22  H    0.158196
    23  H    0.153448
    24  H    0.133409
    25  H    0.147557
    26  H    0.135217
    27  H    0.147688
    28  H    0.158201
    29  H    0.167515
    30  H    0.155281
 Sum of Mulliken charges =  -0.00000

 Dipole moment (field-independent basis, Debye):
    X=              2.9186    Y=             -3.4870    Z=             -0.0919  Tot=              4.5482
 Quadrupole moment (field-independent basis, Debye-Ang):
   XX=           -101.8487   YY=            -99.4785   ZZ=            -96.4615
   XY=             -8.5379   XZ=              0.8038   YZ=              1.6435

  Exact polarizability: 166.979  -1.247 133.951  -3.216   3.180  90.778
 Approx polarizability: 226.022  -3.282 233.498 -12.639   8.508 134.816

                      1                      2                      3
                      A                      A                      A
 Frequencies --     15.1143                41.5087                50.6743
 Red. masses --     12.2079                 4.3547                 5.0082
 Frc consts  --      0.0016                 0.0044                 0.0076
 IR Inten    --      0.3073                 0.5071                 0.5571

                      4                      5                      6
                      A                      A                      A
 Frequencies --     80.8453                95.2973               140.4987
 Red. masses --      8.9247                 4.3556                 6.3397
 Frc consts  --      0.0344                 0.0233                 0.0737
 IR Inten    --      2.8305                 1.6859                 1.0705

                      7                      8                      9
                      A                      A                      A
 Frequencies --    164.6680               227.8821               244.2024
 Red. masses --      4.1552                 4.0521                 5.1393
 Frc consts  --      0.0664                 0.1240                 0.1806
 IR Inten    --      0.5259                 1.8800                 0.5893

                     10                     11                     12
                      A                      A                      A
 Frequencies --    267.8298               336.5775               365.0971
 Red. masses --      3.8206                 2.9585                 4.3421
 Frc consts  --      0.1615                 0.1975                 0.3410
 IR Inten    --      1.4488                 1.6263                 1.6675

                     13                     14                     15
                      A                      A                      A
 Frequencies --    391.1779               401.2981               417.9550
 Red. masses --      3.6681                 7.3238                 3.1263
 Frc consts  --      0.3307                 0.6949                 0.3218
 IR Inten    --      1.6750                 1.2291                 0.0397

                     16                     17                     18
                      A                      A                      A
 Frequencies --    443.5949               465.4276               491.3818
 Red. masses --      2.9248                 3.0268                 3.1588
 Frc consts  --      0.3391                 0.3863                 0.4494
 IR Inten    --      2.4454                 7.0544                 6.1752

                     19                     20                     21
                      A                      A                      A
 Frequencies --    520.7498               542.9539               574.6211
 Red. masses --      5.0132                 3.8690                11.4672
 Frc consts  --      0.8010                 0.6720                 2.2309
 IR Inten    --      2.0635                 2.3798                 0.1244

                     22                     23                     24
                      A                      A                      A
 Frequencies --    598.9075               631.5849               649.1375
 Red. masses --      4.7708                 3.4759                 6.5656
 Frc consts  --      1.0082                 0.8169                 1.6300
 IR Inten    --      9.3542                10.2891                 0.5197

                     25                     26                     27
                      A                      A                      A
 Frequencies --    705.2137               720.1383               758.6744
 Red. masses --      3.1916                 6.2412                 2.8958
 Frc consts  --      0.9352                 1.9070                 0.9821
 IR Inten    --      0.0424                 8.0428                 5.7647

                     28                     29                     30
                      A                      A                      A
 Frequencies --    763.0675               795.2088               840.8183
 Red. masses --      3.0918                 5.0012                 1.9086
 Frc consts  --      1.0607                 1.8633                 0.7950
 IR Inten    --      0.9499                 0.0464                17.5407

                     31                     32                     33
                      A                      A                      A
 Frequencies --    860.5475               865.4720               880.1841
 Red. masses --      1.8216                 1.5018                 1.6895
 Frc consts  --      0.7948                 0.6628                 0.7712
 IR Inten    --      7.2351                 1.1706                16.7107

                     34                     35                     36
                      A                      A                      A
 Frequencies --    909.3849               927.4113               973.5356
 Red. masses --      1.6929                 2.3518                 1.3162
 Frc consts  --      0.8248                 1.1918                 0.7350
 IR Inten    --      3.5954                 9.7437                 0.4213

                     37                     38                     39
                      A                      A                      A
 Frequencies --    988.9280              1003.8997              1032.5506
 Red. masses --      1.3412                 2.4499                 2.3405
 Frc consts  --      0.7728                 1.4547                 1.4702
 IR Inten    --      1.0539                 1.8905                21.9082

                     40                     41                     42
                      A                      A                      A
 Frequencies --   1035.2345              1081.0512              1089.1455
 Red. masses --      2.7717                 1.8614                 2.6761
 Frc consts  --      1.7502                 1.2817                 1.8704
 IR Inten    --     18.6321                 3.0024                22.2042

                     43                     44                     45
                      A                      A                      A
 Frequencies --   1099.0743              1127.3425              1150.3875
 Red. masses --      2.2129                 1.5102                 1.6236
 Frc consts  --      1.5749                 1.1308                 1.2659
 IR Inten    --     78.3160                15.0498                48.4659

                     46                     47                     48
                      A                      A                      A
 Frequencies --   1171.0013              1184.6217              1201.2198
 Red. masses --      1.6772                11.7653                 2.0515
 Frc consts  --      1.3551                 9.7277                 1.7441
 IR Inten    --      9.5557               252.2840                 6.8638

                     49                     50                     51
                      A                      A                      A
 Frequencies --   1212.6902              1231.7955              1248.0082
 Red. masses --      4.1694                 1.1798                 1.4293
 Frc consts  --      3.6126                 1.0547                 1.3116
 IR Inten    --    136.1221                16.6330                17.2844

                     52                     53                     54
                      A                      A                      A
 Frequencies --   1252.7589              1281.6348              1315.3905
 Red. masses --      1.6700                 1.3452                 1.4440
 Frc consts  --      1.5442                 1.3019                 1.4721
 IR Inten    --     22.9598                 2.6252                 4.6586

                     55                     56                     57
                      A                      A                      A
 Frequencies --   1343.9476              1346.6578              1353.2427
 Red. masses --      2.6920                 2.7758                 2.1073
 Frc consts  --      2.8648                 2.9659                 2.2737
 IR Inten    --    202.6140               161.4005                 8.7768

                     58                     59                     60
                      A                      A                      A
 Frequencies --   1362.1017              1364.3140              1386.1612
 Red. masses --      1.9857                 1.3751                 1.4067
 Frc consts  --      2.1706                 1.5081                 1.5925
 IR Inten    --     24.4958                10.8286                10.0205

                     61                     62                     63
                      A                      A                      A
 Frequencies --   1396.5495              1410.6028              1462.3683
 Red. masses --      1.5321                 1.5404                 2.5047
 Frc consts  --      1.7606                 1.8059                 3.1559
 IR Inten    --      3.0877                 5.2033                19.4849

                     64                     65                     66
                      A                      A                      A
 Frequencies --   1490.6342              1497.8295              1518.5916
 Red. masses --      1.0972                 1.0889                 1.0839
 Frc consts  --      1.4364                 1.4393                 1.4728
 IR Inten    --      7.4624                12.3622                 8.6446

                     67                     68                     69
                      A                      A                      A
 Frequencies --   1528.9271              1568.0743              1633.0952
 Red. masses --      1.0935                 2.4448                 6.2902
 Frc consts  --      1.5061                 3.5418                 9.8842
 IR Inten    --      4.9002                 0.3757                 3.1388

                     70                     71                     72
                      A                      A                      A
 Frequencies --   1676.8205              1810.5513              3019.6439
 Red. masses --      5.6375                10.9711                 1.0696
 Frc consts  --      9.3392                21.1895                 5.7464
 IR Inten    --     26.0755               153.0006                 2.3476

                     73                     74                     75
                      A                      A                      A
 Frequencies --   3025.7673              3029.2690              3042.0822
 Red. masses --      1.0751                 1.0684                 1.0780
 Frc consts  --      5.7995                 5.7765                 5.8775
 IR Inten    --     22.9800                10.1687                48.4593

                     76                     77                     78
                      A                      A                      A
 Frequencies --   3053.0363              3089.0048              3093.5497
 Red. masses --      1.0607                 1.0950                 1.1044
 Frc consts  --      5.8252                 6.1560                 6.2272
 IR Inten    --     24.1743                29.6346                47.2593

                     79                     80                     81
                      A                      A                      A
 Frequencies --   3120.2183              3121.4464              3179.8556
 Red. masses --      1.0938                 1.0945                 1.0888
 Frc consts  --      6.2741                 6.2832                 6.4868
 IR Inten    --     18.6591                10.2208                11.1994

                     82                     83                     84
                      A                      A                      A
 Frequencies --   3215.4389              3218.6686              3230.4309
 Red. masses --      1.0884                 1.0927                 1.0937
 Frc consts  --      6.6302                 6.6694                 6.7245
 IR Inten    --      1.2422                 6.0482                 1.7509

 - Thermochemistry -
 -------------------
 Temperature   298.150 Kelvin.  Pressure   1.00000 Atm.
 Atom     1 has atomic number  8 and mass  15.99491

 Molecular mass:   242.09185 amu.
 Principal axes and moments of inertia in atomic units:
                           1         2         3
     Eigenvalues --  1698.303338277.072898868.36527
           X            0.99997  -0.00518   0.00637
           Y            0.00519   0.99999  -0.00066
           Z           -0.00636   0.00069   0.99998
 This molecule is an asymmetric top.
 Rotational symmetry number  1.
 Warning -- assumption of classical behavior for rotation
           may cause significant error
 Rotational temperatures (Kelvin)      0.05100     0.01046     0.00977
 Rotational constants (GHZ):           1.06267     0.21804     0.20350
 Zero-point vibrational energy     624775.2 (Joules/Mol)
                                  149.32486 (Kcal/Mol)
 Warning -- explicit consideration of  22 degrees of freedom as
           vibrations may cause significant error
 Vibrational temperatures:     21.75    59.72    72.91   116.32   137.11
          (Kelvin)            202.15   236.92   327.87   351.35   385.35
                              484.26   525.29   562.82   577.38   601.34
                              638.23   669.65   706.99   749.24   781.19
                              826.75   861.69   908.71   933.96  1014.65
                             1036.12  1091.56  1097.88  1144.13  1209.75
                             1238.14  1245.22  1266.39  1308.40  1334.34
                             1400.70  1422.85  1444.39  1485.61  1489.47
                             1555.39  1567.04  1581.32  1621.99  1655.15
                             1684.81  1704.41  1728.29  1744.79  1772.28
                             1795.61  1802.44  1843.99  1892.55  1933.64
                             1937.54  1947.01  1959.76  1962.94  1994.38
                             2009.32  2029.54  2104.02  2144.69  2155.04
                             2184.91  2199.79  2256.11  2349.66  2412.57
                             2604.98  4344.59  4353.40  4358.44  4376.88
                             4392.64  4444.39  4450.93  4489.30  4491.07
                             4575.10  4626.30  4630.95  4647.87

 Zero-point correction=                           0.237964 (Hartree/Particle)
 Thermal correction to Energy=                    0.252433
 Thermal correction to Enthalpy=                  0.253377
 Thermal correction to Gibbs Free Energy=         0.194208
 Sum of electronic and zero-point Energies=           -877.738616
 Sum of electronic and thermal Energies=              -877.724147
 Sum of electronic and thermal Enthalpies=            -877.723203
 Sum of electronic and thermal Free Energies=         -877.782373

                     E (Thermal)             CV                S
                      KCal/Mol        Cal/Mol-Kelvin    Cal/Mol-Kelvin
 Total                  158.404             56.050            124.533
 Electronic               0.000              0.000              0.000
 Translational            0.889              2.981             42.353
 Rotational               0.889              2.981             33.188
 Vibrational            156.627             50.088             48.991
 Vibration     1          0.593              1.986              7.190
 Vibration     2          0.594              1.981              5.186
 Vibration     3          0.595              1.977              4.791
 Vibration     4          0.600              1.962              3.870
 Vibration     5          0.603              1.953              3.548
 Vibration     6          0.615              1.913              2.797
 Vibration     7          0.623              1.886              2.495
 Vibration     8          0.651              1.798              1.896
 Vibration     9          0.660              1.772              1.772
 Vibration    10          0.673              1.732              1.610
 Vibration    11          0.717              1.602              1.228
 Vibration    12          0.738              1.544              1.100
 Vibration    13          0.759              1.489              0.996
 Vibration    14          0.767              1.467              0.958
 Vibration    15          0.781              1.431              0.899
 Vibration    16          0.803              1.375              0.815
 Vibration    17          0.823              1.327              0.750
 Vibration    18          0.847              1.269              0.680
 Vibration    19          0.876              1.204              0.608
 Vibration    20          0.898              1.155              0.559
 Vibration    21          0.931              1.086              0.495
 Vibration    22          0.957              1.034              0.452

 Normal termination of Gaussian 16 at Fri Feb 23 23:14:03 2024.
