 Gaussian 16, Revision A.03,
 Gaussian 16:  EM64M-G16RevA.03 25-Dec-2016

 ---------------------
 # freq b3lyp/6-31g(d)
 ---------------------

 ---------
 good luck
 ---------
 Symbolic Z-matrix:
 Charge =  0 Multiplicity = 1

                         Standard orientation:
 ---------------------------------------------------------------------
 Center     Atomic      Atomic             Coordinates (Angstroms)
 Number     Number       Type             X           Y           Z
 ---------------------------------------------------------------------
      1          8           0       -3.038903    0.923810   -0.891807
      2          6           0       -2.046506    0.339839   -0.504443
      3          6           0       -1.704703   -1.099540   -0.896588
      4          6           0       -0.443987   -1.551409   -0.136482
      5          6           0        0.754781   -0.659650   -0.576081
      6          6           0        2.048336   -1.100569    0.062392
      7          6           0        3.077817   -1.623153   -0.605321
      8          6           0        0.374381    0.863653   -0.332252
      9          6           0        1.431133    1.683439    0.363561
     10          6           0        2.009560    2.764196   -0.162005
     11          6           0       -0.996078    0.941830    0.418193
     12          6           0       -0.962524    0.097723    1.716361
     13          6           0       -0.715288   -1.400786    1.374825
     14          1           0       -2.567901   -1.738807   -0.670727
     15          1           0       -1.563445   -1.141876   -1.985411
     16          1           0       -0.212660   -2.596106   -0.373912
     17          1           0        0.878091   -0.793020   -1.658342
     18          1           0        2.127097   -1.005751    1.145125
     19          1           0        3.982537   -1.949747   -0.099492
     20          1           0        3.058434   -1.739748   -1.687360
     21          1           0        0.225442    1.322810   -1.317316
     22          1           0        1.716126    1.377286    1.369439
     23          1           0        1.764331    3.115937   -1.162339
     24          1           0        2.753111    3.337962    0.384655
     25          1           0       -1.255618    1.983318    0.626577
     26          1           0       -1.906008    0.225545    2.257931
     27          1           0       -0.178120    0.485992    2.375467
     28          1           0        0.119849   -1.803074    1.957371
     29          1           0       -1.591580   -2.004654    1.639837
 ---------------------------------------------------------------------

 SCF Done:  E(RB3LYP) =  -542.080655777     A.U. after   14 cycles

 The electronic state is 1-A.
 Alpha  occ. eigenvalues --  -19.13209 -10.26686 -10.20451 -10.20101 -10.19835
 Alpha  occ. eigenvalues --  -10.19457 -10.19424 -10.19213 -10.19198 -10.19058
 Alpha  occ. eigenvalues --  -10.19022 -10.18260 -10.18208  -1.03140  -0.86848
 Alpha  occ. eigenvalues --   -0.79402  -0.78659  -0.74989  -0.73184  -0.70819
 Alpha  occ. eigenvalues --   -0.62823  -0.61814  -0.58382  -0.57455  -0.53740
 Alpha  occ. eigenvalues --   -0.51451  -0.49302  -0.47941  -0.46648  -0.44923
 Alpha  occ. eigenvalues --   -0.44088  -0.42000  -0.41503  -0.41214  -0.40269
 Alpha  occ. eigenvalues --   -0.39251  -0.38024  -0.37813  -0.37003  -0.36628
 Alpha  occ. eigenvalues --   -0.35649  -0.33420  -0.32161  -0.31012  -0.30332
 Alpha  occ. eigenvalues --   -0.25818  -0.25551  -0.23105
 Alpha virt. eigenvalues --   -0.01562   0.00980   0.02739   0.07059   0.07879
 Alpha virt. eigenvalues --    0.11444   0.12206   0.12940   0.13494   0.13875
 Alpha virt. eigenvalues --    0.14825   0.15515   0.16378   0.16940   0.17516

 Mulliken charges:
               1
     1  O   -0.456195
     2  C    0.450885
     3  C   -0.363629
     4  C   -0.101352
     5  C   -0.142005
     6  C   -0.036001
     7  C   -0.349018
     8  C   -0.168415
     9  C   -0.029720
    10  C   -0.347559
    11  C   -0.167807
    12  C   -0.295017
    13  C   -0.284166
    14  H    0.169499
    15  H    0.168319
    16  H    0.131313
    17  H    0.130973
    18  H    0.124930
    19  H    0.140499
    20  H    0.137603
    21  H    0.143325
    22  H    0.125810
    23  H    0.139971
    24  H    0.141254
    25  H    0.146844
    26  H    0.155579
    27  H    0.147494
    28  H    0.144710
    29  H    0.141878
 Sum of Mulliken charges =  -0.00000

 Dipole moment (field-independent basis, Debye):
    X=              2.2276    Y=             -1.5525    Z=              1.0482  Tot=              2.9105
 Quadrupole moment (field-independent basis, Debye-Ang):
   XX=            -88.4254   YY=            -78.8758   ZZ=            -75.4071
   XY=              5.6178   XZ=             -3.0938   YZ=              1.4000

  Exact polarizability: 135.697   1.179 120.067  -1.551  -0.703 104.160
 Approx polarizability: 187.812  -2.545 168.027  -2.612  -4.917 161.820

                      1                      2                      3
                      A                      A                      A
 Frequencies --     15.6745                72.9600                82.6697
 Red. masses --      3.6831                 3.1543                 3.0054
 Frc consts  --      0.0005                 0.0099                 0.0121
 IR Inten    --      1.1296                 0.0175                 1.0124

                      4                      5                      6
                      A                      A                      A
 Frequencies --     97.7402               182.1240               220.2348
 Red. masses --      4.3662                 2.8471                 1.9660
 Frc consts  --      0.0246                 0.0556                 0.0562
 IR Inten    --      2.6630                 0.2896                 0.1396

                      7                      8                      9
                      A                      A                      A
 Frequencies --    263.8334               284.1305               311.3865
 Red. masses --      2.0799                 1.9845                 2.9957
 Frc consts  --      0.0853                 0.0944                 0.1711
 IR Inten    --      0.1377                 0.0079                 0.4265

                     10                     11                     12
                      A                      A                      A
 Frequencies --    349.3304               371.8796               379.0286
 Red. masses --      2.6678                 2.6600                 3.4311
 Frc consts  --      0.1918                 0.2167                 0.2904
 IR Inten    --      0.3769                 1.6726                 3.5264

                     13                     14                     15
                      A                      A                      A
 Frequencies --    419.1944               464.7933               512.0199
 Red. masses --      2.6679                 3.9902                 3.6859
 Frc consts  --      0.2762                 0.5079                 0.5693
 IR Inten    --      3.2835                11.3541                 0.7325

                     16                     17                     18
                      A                      A                      A
 Frequencies --    581.8386               608.2456               637.3925
 Red. masses --      3.1156                 2.8048                 3.0054
 Frc consts  --      0.6214                 0.6114                 0.7194
 IR Inten    --      1.0197                 1.4017                 1.7230

                     19                     20                     21
                      A                      A                      A
 Frequencies --    684.6076               716.6847               758.7237
 Red. masses --      2.1998                 2.2656                 3.1027
 Frc consts  --      0.6075                 0.6856                 1.0523
 IR Inten    --      5.0338                 2.4403                 2.0969

                     22                     23                     24
                      A                      A                      A
 Frequencies --    782.1903               837.3775               846.1730
 Red. masses --      2.5704                 1.4857                 2.5344
 Frc consts  --      0.9266                 0.6138                 1.0692
 IR Inten    --      1.9160                 4.3666                 2.1387

                     25                     26                     27
                      A                      A                      A
 Frequencies --    867.7564               897.4012               942.5636
 Red. masses --      2.2218                 2.1249                 1.3581
 Frc consts  --      0.9857                 1.0082                 0.7109
 IR Inten    --      4.7120                 2.4107                39.5392

                     28                     29                     30
                      A                      A                      A
 Frequencies --    944.5690               948.1425               964.7452
 Red. masses --      1.3582                 1.9432                 2.7856
 Frc consts  --      0.7140                 1.0292                 1.5276
 IR Inten    --     28.6223                 3.2031                 1.5121

                     31                     32                     33
                      A                      A                      A
 Frequencies --    991.5546              1017.4922              1030.5464
 Red. masses --      2.0622                 2.0584                 1.1795
 Frc consts  --      1.1946                 1.2556                 0.7381
 IR Inten    --      0.8718                 1.2248                 9.2619

                     34                     35                     36
                      A                      A                      A
 Frequencies --   1034.8137              1045.7874              1054.7371
 Red. masses --      2.3865                 1.1798                 1.9652
 Frc consts  --      1.5057                 0.7602                 1.2881
 IR Inten    --     11.8412                11.3833                 0.2639

                     37                     38                     39
                      A                      A                      A
 Frequencies --   1074.2552              1092.9270              1111.9598
 Red. masses --      2.5785                 1.8391                 1.8677
 Frc consts  --      1.7532                 1.2943                 1.3606
 IR Inten    --      0.2239                10.5614                12.1976

                     40                     41                     42
                      A                      A                      A
 Frequencies --   1139.5246              1184.1348              1190.7038
 Red. masses --      1.4061                 1.3678                 1.7530
 Frc consts  --      1.0758                 1.1300                 1.4644
 IR Inten    --     14.7560                 5.8386                 1.4139

                     43                     44                     45
                      A                      A                      A
 Frequencies --   1213.9925              1250.7378              1262.6726
 Red. masses --      1.6833                 1.5235                 1.2441
 Frc consts  --      1.4617                 1.4042                 1.1687
 IR Inten    --     14.7632                16.0683                 0.0625

                     46                     47                     48
                      A                      A                      A
 Frequencies --   1282.7871              1303.6004              1325.1342
 Red. masses --      1.5524                 1.4522                 1.3893
 Frc consts  --      1.5051                 1.4540                 1.4373
 IR Inten    --      1.5167                 1.8580                 0.2491

                     49                     50                     51
                      A                      A                      A
 Frequencies --   1332.4300              1335.1437              1346.0016
 Red. masses --      1.3103                 1.3514                 1.3829
 Frc consts  --      1.3706                 1.4193                 1.4761
 IR Inten    --      2.3033                 3.6924                 5.7707

                     52                     53                     54
                      A                      A                      A
 Frequencies --   1351.1347              1360.0529              1370.6085
 Red. masses --      1.2799                 1.3461                 1.3463
 Frc consts  --      1.3766                 1.4670                 1.4901
 IR Inten    --      2.2289                 1.9399                 2.7672

                     55                     56                     57
                      A                      A                      A
 Frequencies --   1373.2058              1382.3640              1397.8209
 Red. masses --      1.4440                 1.5325                 1.3999
 Frc consts  --      1.6044                 1.7254                 1.6116
 IR Inten    --      5.1368                 7.8834                 1.0877

                     58                     59                     60
                      A                      A                      A
 Frequencies --   1474.6050              1480.5171              1483.1028
 Red. masses --      1.0975                 1.1817                 1.2197
 Frc consts  --      1.4061                 1.5262                 1.5806
 IR Inten    --     11.0955                 3.0759                 1.7869

                     61                     62                     63
                      A                      A                      A
 Frequencies --   1524.7179              1545.7547              1724.7200
 Red. masses --      1.0737                 1.0924                 4.3899
 Frc consts  --      1.4707                 1.5378                 7.6939
 IR Inten    --      0.8296                 8.7915                 4.3575

                     64                     65                     66
                      A                      A                      A
 Frequencies --   1726.6587              1825.9277              3032.1372
 Red. masses --      4.4158                11.9001                 1.0856
 Frc consts  --      7.7566                23.3759                 5.8807
 IR Inten    --      5.8107               229.5196                 4.0728

                     67                     68                     69
                      A                      A                      A
 Frequencies --   3043.1480              3052.1578              3053.0774
 Red. masses --      1.0626                 1.0833                 1.0654
 Frc consts  --      5.7977                 5.9461                 5.8514
 IR Inten    --     10.2491                24.3171                22.5475

                     70                     71                     72
                      A                      A                      A
 Frequencies --   3063.7172              3072.3204              3083.9273
 Red. masses --      1.0650                 1.0858                 1.1007
 Frc consts  --      5.8897                 6.0383                 6.1680
 IR Inten    --     41.9361                37.7617                15.4486

                     73                     74                     75
                      A                      A                      A
 Frequencies --   3087.6425              3106.3319              3107.6237
 Red. masses --      1.0993                 1.1009                 1.0897
 Frc consts  --      6.1748                 6.2590                 6.2005
 IR Inten    --     11.9303                36.0787                29.9852

                     76                     77                     78
                      A                      A                      A
 Frequencies --   3147.2328              3153.4938              3157.8926
 Red. masses --      1.0728                 1.0600                 1.0759
 Frc consts  --      6.2607                 6.2104                 6.3214
 IR Inten    --      8.1832                20.2452                 3.8107

                     79                     80                     81
                      A                      A                      A
 Frequencies --   3164.3256              3234.4054              3235.8855
 Red. masses --      1.0891                 1.1156                 1.1156
 Frc consts  --      6.4254                 6.8759                 6.8824
 IR Inten    --     15.5321                13.1401                24.9966

 - Thermochemistry -
 -------------------
 Temperature   298.150 Kelvin.  Pressure   1.00000 Atm.
 Atom     1 has atomic number  8 and mass  15.99491

 Molecular mass:   176.12012 amu.
 Principal axes and moments of inertia in atomic units:
                           1         2         3
     Eigenvalues --  1664.707632511.621853235.25005
           X            0.99932   0.03394  -0.01425
           Y           -0.03384   0.99940   0.00698
           Z            0.01448  -0.00649   0.99987
 This molecule is an asymmetric top.
 Rotational symmetry number  1.
 Warning -- assumption of classical behavior for rotation
           may cause significant error
 Rotational temperatures (Kelvin)      0.05203     0.03449     0.02677
 Rotational constants (GHZ):           1.08412     0.71856     0.55784
 Zero-point vibrational energy     666815.6 (Joules/Mol)
                                  159.37275 (Kcal/Mol)
 Warning -- explicit consideration of  17 degrees of freedom as
           vibrations may cause significant error
 Vibrational temperatures:     22.55   104.97   118.94   140.63   262.04
          (Kelvin)            316.87   379.60   408.80   448.02   502.61
                              535.05   545.34   603.13   668.73   736.68
                              837.14   875.13   917.07   985.00  1031.15
                             1091.63  1125.40  1204.80  1217.45  1248.51
                             1291.16  1356.14  1359.02  1364.17  1388.05
                             1426.63  1463.94  1482.73  1488.87  1504.65
                             1517.53  1545.61  1572.48  1599.86  1639.52
                             1703.71  1713.16  1746.66  1799.53  1816.70
                             1845.64  1875.59  1906.57  1917.07  1920.97
                             1936.60  1943.98  1956.81  1972.00  1975.74
                             1988.91  2011.15  2121.63  2130.13  2133.85
                             2193.73  2224.00  2481.49  2484.28  2627.10
                             4362.57  4378.41  4391.37  4392.70  4408.01
                             4420.38  4437.08  4442.43  4469.32  4471.18
                             4528.17  4537.17  4543.50  4552.76  4653.59
                             4655.72

 Zero-point correction=                           0.253977 (Hartree/Particle)
 Thermal correction to Energy=                    0.266045
 Thermal correction to Enthalpy=                  0.266989
 Thermal correction to Gibbs Free Energy=         0.214724
 Sum of electronic and zero-point Energies=           -541.826679
 Sum of electronic and thermal Energies=              -541.814611
 Sum of electronic and thermal Enthalpies=            -541.813667
 Sum of electronic and thermal Free Energies=         -541.865932

                     E (Thermal)             CV                S
                      KCal/Mol        Cal/Mol-Kelvin    Cal/Mol-Kelvin
 Total                  166.945             47.399            110.001
 Electronic               0.000              0.000              0.000
 Translational            0.889              2.981             41.405
 Rotational               0.889              2.981             30.982
 Vibrational            165.168             41.437             37.614
 Vibration     1          0.593              1.986              7.118
 Vibration     2          0.599              1.967              4.072
 Vibration     3          0.600              1.961              3.826
 Vibration     4          0.603              1.951              3.499
 Vibration     5          0.630              1.864              2.307
 Vibration     6          0.647              1.810              1.957
 Vibration     7          0.670              1.739              1.636
 Vibration     8          0.683              1.703              1.509
 Vibration     9          0.700              1.652              1.355
 Vibration    10          0.727              1.577              1.169
 Vibration    11          0.744              1.530              1.072
 Vibration    12          0.749              1.515              1.043
 Vibration    13          0.782              1.429              0.895
 Vibration    14          0.822              1.328              0.752
 Vibration    15          0.867              1.223              0.629
 Vibration    16          0.939              1.071              0.482
 Vibration    17          0.967              1.014              0.436

 Normal termination of Gaussian 16 at Mon Feb 26 15:44:08 2024.
