 Gaussian 16, Revision A.03,
 Gaussian 16:  EM64M-G16RevA.03 25-Dec-2016

 ---------------------
 # freq b3lyp/6-31g(d)
 ---------------------

 ---------
 good luck
 ---------
 Symbolic Z-matrix:
 Charge =  0 Multiplicity = 1

                         Standard orientation:
 ---------------------------------------------------------------------
 Center     Atomic      Atomic             Coordinates (Angstroms)
 Number     Number       Type             X           Y           Z
 ---------------------------------------------------------------------
      1          8           0       -3.166934    1.951429    0.000002
      2          6           0       -2.367678    1.033597    0.000001
      3          6           0       -1.805286    0.398294   -1.266053
      4          6           0       -0.262282    0.576265   -1.255781
      5          6           0       -2.148732   -1.111584   -1.257452
      6          6           0       -1.549812   -1.770787   -0.000001
      7          6           0       -2.148732   -1.111586    1.257451
      8          6           0       -1.805285    0.398292    1.266053
      9          6           0       -0.262281    0.576264    1.255782
     10          6           0        0.369101   -0.084736   -0.000000
     11         14           0        2.283761    0.138246    0.000001
     12          6           0        3.036563   -0.671740   -1.542262
     13          6           0        3.036562   -0.671731    1.542269
     14          6           0        2.728270    1.982608   -0.000006
     15          6           0       -0.016360   -1.590732   -0.000001
     16          1           0       -2.247862    0.900059   -2.133087
     17          1           0        0.145579    0.131078   -2.173856
     18          1           0       -0.021998    1.647202   -1.289678
     19          1           0       -3.237560   -1.251496   -1.281779
     20          1           0       -1.745262   -1.580895   -2.165316
     21          1           0       -1.790157   -2.842358   -0.000002
     22          1           0       -3.237560   -1.251497    1.281777
     23          1           0       -1.745263   -1.580897    2.165313
     24          1           0       -2.247862    0.900055    2.133089
     25          1           0        0.145579    0.131075    2.173856
     26          1           0       -0.021998    1.647201    1.289680
     27          1           0        2.660061   -0.222139   -2.468600
     28          1           0        4.126846   -0.550484   -1.541076
     29          1           0        2.828525   -1.747272   -1.586048
     30          1           0        4.126844   -0.550476    1.541081
     31          1           0        2.828523   -1.747263    1.586061
     32          1           0        2.660058   -0.222124    2.468603
     33          1           0        3.817742    2.110988   -0.000004
     34          1           0        2.339414    2.500223   -0.884772
     35          1           0        2.339413    2.500229    0.884757
     36          1           0        0.407732   -2.091315   -0.881511
     37          1           0        0.407732   -2.091315    0.881508
 ---------------------------------------------------------------------

 SCF Done:  E(RB3LYP) =  -873.402620818     A.U. after   13 cycles

 The electronic state is 1-A.
 Alpha  occ. eigenvalues --  -66.11833 -19.12699 -10.25806 -10.19169 -10.18994
 Alpha  occ. eigenvalues --  -10.18994 -10.18921 -10.18919 -10.18775 -10.18774
 Alpha  occ. eigenvalues --  -10.18473 -10.18294 -10.16313 -10.16313 -10.16236
 Alpha  occ. eigenvalues --   -5.26278  -3.62154  -3.62152  -3.62140  -1.02503
 Alpha  occ. eigenvalues --   -0.86816  -0.77573  -0.77235  -0.75530  -0.70836
 Alpha  occ. eigenvalues --   -0.67949  -0.67764  -0.67188  -0.64343  -0.59858
 Alpha  occ. eigenvalues --   -0.58273  -0.56614  -0.50720  -0.46921  -0.45707
 Alpha  occ. eigenvalues --   -0.45197  -0.44074  -0.43480  -0.43437  -0.41503
 Alpha  occ. eigenvalues --   -0.41492  -0.41137  -0.40576  -0.40546  -0.40026
 Alpha  occ. eigenvalues --   -0.39364  -0.38515  -0.38462  -0.38289  -0.36018
 Alpha  occ. eigenvalues --   -0.35907  -0.34375  -0.33522  -0.33470  -0.33413
 Alpha  occ. eigenvalues --   -0.30543  -0.30099  -0.29287  -0.28878  -0.25446
 Alpha  occ. eigenvalues --   -0.22504
 Alpha virt. eigenvalues --   -0.00454   0.05756   0.08301   0.08393   0.08590
 Alpha virt. eigenvalues --    0.11313   0.11322   0.11577   0.12242   0.12578
 Alpha virt. eigenvalues --    0.13396   0.13899   0.14414   0.14805   0.15211

 Mulliken charges:
               1
     1  O   -0.463651
     2  C    0.454653
     3  C   -0.166750
     4  C   -0.308145
     5  C   -0.278564
     6  C   -0.094477
     7  C   -0.278564
     8  C   -0.166750
     9  C   -0.308145
    10  C   -0.097640
    11  Si   0.760319
    12  C   -0.665599
    13  C   -0.665599
    14  C   -0.666321
    15  C   -0.291804
    16  H    0.139609
    17  H    0.139353
    18  H    0.146723
    19  H    0.142416
    20  H    0.134723
    21  H    0.122990
    22  H    0.142417
    23  H    0.134723
    24  H    0.139609
    25  H    0.139353
    26  H    0.146723
    27  H    0.158951
    28  H    0.162347
    29  H    0.158538
    30  H    0.162347
    31  H    0.158538
    32  H    0.158951
    33  H    0.162212
    34  H    0.160603
    35  H    0.160603
    36  H    0.132654
    37  H    0.132654
 Sum of Mulliken charges =  -0.00000

 Dipole moment (field-independent basis, Debye):
    X=              2.4665    Y=             -2.3716    Z=             -0.0000  Tot=              3.4217
 Quadrupole moment (field-independent basis, Debye-Ang):
   XX=           -108.2765   YY=           -104.4304   ZZ=            -97.6726
   XY=              9.5394   XZ=              0.0000   YZ=             -0.0000

  Exact polarizability: 166.103  -2.339 140.421  -0.000   0.000 137.539
 Approx polarizability: 219.139 -11.760 215.203  -0.000   0.000 206.910

                      1                      2                      3
                      A                      A                      A
 Frequencies --     26.2562                79.5987               113.7175
 Red. masses --      2.8760                 7.2374                 3.0556
 Frc consts  --      0.0012                 0.0270                 0.0233
 IR Inten    --      0.2004                 2.7612                 0.2905

                      4                      5                      6
                      A                      A                      A
 Frequencies --    132.1147               140.3839               150.7685
 Red. masses --      3.2908                 1.0412                 1.0562
 Frc consts  --      0.0338                 0.0121                 0.0141
 IR Inten    --      0.3964                 0.0057                 0.0027

                      7                      8                      9
                      A                      A                      A
 Frequencies --    152.4190               190.1322               192.9322
 Red. masses --      1.0722                 2.2293                 2.3279
 Frc consts  --      0.0147                 0.0475                 0.0511
 IR Inten    --      0.0032                 0.0701                 0.2888

                     10                     11                     12
                      A                      A                      A
 Frequencies --    197.7039               243.8031               261.3103
 Red. masses --      2.6634                 2.6176                 3.0300
 Frc consts  --      0.0613                 0.0917                 0.1219
 IR Inten    --      1.1132                 1.4613                 2.6366

                     13                     14                     15
                      A                      A                      A
 Frequencies --    272.9675               313.7926               329.8802
 Red. masses --      2.3118                 2.7093                 3.7450
 Frc consts  --      0.1015                 0.1572                 0.2401
 IR Inten    --      0.5201                 0.1066                 8.1935

                     16                     17                     18
                      A                      A                      A
 Frequencies --    372.8304               386.1619               400.3216
 Red. masses --      4.5774                 2.2422                 4.7948
 Frc consts  --      0.3749                 0.1970                 0.4527
 IR Inten    --      0.3419                 0.9311                 0.0706

                     19                     20                     21
                      A                      A                      A
 Frequencies --    432.4762               441.9516               469.5620
 Red. masses --      1.7618                 1.8095                 4.2892
 Frc consts  --      0.1941                 0.2082                 0.5572
 IR Inten    --      0.2467                 0.0602                11.5285

                     22                     23                     24
                      A                      A                      A
 Frequencies --    605.8273               616.9570               636.1853
 Red. masses --      3.8894                 5.3356                 3.6068
 Frc consts  --      0.8411                 1.1966                 0.8601
 IR Inten    --      8.8223                 0.3098                 2.6247

                     25                     26                     27
                      A                      A                      A
 Frequencies --    668.6333               686.1649               686.4907
 Red. masses --      4.4579                 2.4720                 2.4633
 Frc consts  --      1.1742                 0.6857                 0.6840
 IR Inten    --      0.3937                 8.5937                 9.0832

                     28                     29                     30
                      A                      A                      A
 Frequencies --    700.1823               716.5739               768.5486
 Red. masses --      1.1661                 4.0615                 1.5861
 Frc consts  --      0.3368                 1.2287                 0.5520
 IR Inten    --      0.0010                 4.1607                13.1434

                     31                     32                     33
                      A                      A                      A
 Frequencies --    771.5398               787.0511               799.8345
 Red. masses --      1.4733                 3.6092                 2.7597
 Frc consts  --      0.5167                 1.3172                 1.0402
 IR Inten    --     14.9363                 0.9423                 3.2409

                     34                     35                     36
                      A                      A                      A
 Frequencies --    849.9308               853.2790               878.4447
 Red. masses --      2.6561                 2.5763                 1.5816
 Frc consts  --      1.1305                 1.1052                 0.7191
 IR Inten    --      6.1125                 2.2930                62.0327

                     37                     38                     39
                      A                      A                      A
 Frequencies --    879.9193               892.0872               898.4428
 Red. masses --      1.5977                 1.6071                 1.7769
 Frc consts  --      0.7288                 0.7535                 0.8451
 IR Inten    --     58.2987                 0.9518               198.7668

                     40                     41                     42
                      A                      A                      A
 Frequencies --    899.7064               907.7670               941.8772
 Red. masses --      1.6087                 2.4303                 2.3617
 Frc consts  --      0.7672                 1.1799                 1.2344
 IR Inten    --      0.0343                 8.2244                 5.1598

                     43                     44                     45
                      A                      A                      A
 Frequencies --    968.9456               977.2630              1012.7376
 Red. masses --      2.3979                 2.2620                 2.0916
 Frc consts  --      1.3264                 1.2728                 1.2640
 IR Inten    --      9.2011                 9.2833                 6.3055

                     46                     47                     48
                      A                      A                      A
 Frequencies --   1044.3892              1066.6619              1076.5294
 Red. masses --      2.3227                 2.0803                 4.7043
 Frc consts  --      1.4927                 1.3946                 3.2121
 IR Inten    --      0.6362                 1.1563                16.1841

                     49                     50                     51
                      A                      A                      A
 Frequencies --   1081.7886              1094.4031              1122.8847
 Red. masses --      1.8729                 1.9923                 1.5904
 Frc consts  --      1.2914                 1.4059                 1.1815
 IR Inten    --     24.2594                 3.1333                 0.5728

                     52                     53                     54
                      A                      A                      A
 Frequencies --   1137.0266              1166.2442              1203.7824
 Red. masses --      1.3655                 1.0680                 1.1526
 Frc consts  --      1.0401                 0.8558                 0.9841
 IR Inten    --      1.5864                 0.0858                 1.4604

                     55                     56                     57
                      A                      A                      A
 Frequencies --   1232.1545              1266.6529              1268.9092
 Red. masses --      1.7790                 1.5219                 1.4446
 Frc consts  --      1.5913                 1.4386                 1.3704
 IR Inten    --     10.2615                 6.3426                 0.6037

                     58                     59                     60
                      A                      A                      A
 Frequencies --   1297.9284              1300.0833              1325.2814
 Red. masses --      1.2884                 1.5574                 1.3085
 Frc consts  --      1.2788                 1.5510                 1.3540
 IR Inten    --      0.1340                 0.5219                27.2225

                     61                     62                     63
                      A                      A                      A
 Frequencies --   1326.7925              1332.2648              1333.6266
 Red. masses --      1.2518                 1.5491                 1.5599
 Frc consts  --      1.2984                 1.6200                 1.6346
 IR Inten    --     35.6763                 4.4528                 8.0779

                     64                     65                     66
                      A                      A                      A
 Frequencies --   1337.5081              1353.5462              1360.6933
 Red. masses --      1.2431                 1.4203                 1.3987
 Frc consts  --      1.3102                 1.5331                 1.5258
 IR Inten    --     14.4247                 0.9898                 0.4978

                     67                     68                     69
                      A                      A                      A
 Frequencies --   1382.0445              1386.1073              1397.2953
 Red. masses --      1.6911                 1.4478                 1.4954
 Frc consts  --      1.9031                 1.6389                 1.7202
 IR Inten    --      1.2970                 0.0569                 2.9998

                     70                     71                     72
                      A                      A                      A
 Frequencies --   1399.4016              1407.7592              1490.3245
 Red. masses --      1.5002                 1.4001                 1.0546
 Frc consts  --      1.7310                 1.6348                 1.3800
 IR Inten    --      4.5971                 3.3790                 0.0111

                     73                     74                     75
                      A                      A                      A
 Frequencies --   1491.3852              1491.6333              1501.6276
 Red. masses --      1.0534                 1.0535                 1.0536
 Frc consts  --      1.3805                 1.3810                 1.3997
 IR Inten    --      0.1967                 0.2741                 4.5361

                     76                     77                     78
                      A                      A                      A
 Frequencies --   1502.0465              1508.5139              1508.8988
 Red. masses --      1.0524                 1.0493                 1.0801
 Frc consts  --      1.3989                 1.4069                 1.4489
 IR Inten    --      5.4683                 2.4963                 0.5370

                     79                     80                     81
                      A                      A                      A
 Frequencies --   1513.3778              1522.9038              1523.3135
 Red. masses --      1.0834                 1.0915                 1.0904
 Frc consts  --      1.4620                 1.4915                 1.4908
 IR Inten    --      2.8563                 7.8725                 8.4922

                     82                     83                     84
                      A                      A                      A
 Frequencies --   1540.7747              1817.1443              3022.5572
 Red. masses --      1.0901                11.1801                 1.0610
 Frc consts  --      1.5248                21.7508                 5.7108
 IR Inten    --      0.5350               236.6166                14.2850

                     85                     86                     87
                      A                      A                      A
 Frequencies --   3027.2788              3028.5732              3030.4824
 Red. masses --      1.0591                 1.0652                 1.0599
 Frc consts  --      5.7185                 5.7564                 5.7350
 IR Inten    --     14.6945                12.1610                51.2989

                     88                     89                     90
                      A                      A                      A
 Frequencies --   3031.2597              3041.5639              3041.5661
 Red. masses --      1.0609                 1.0360                 1.0361
 Frc consts  --      5.7434                 5.6469                 5.6475
 IR Inten    --     35.3150                 4.8344                 5.9172

                     91                     92                     93
                      A                      A                      A
 Frequencies --   3043.8495              3048.7057              3060.8005
 Red. masses --      1.0368                 1.0774                 1.1038
 Frc consts  --      5.6598                 5.9000                 6.0929
 IR Inten    --     11.4946                85.8491                18.9071

                     94                     95                     96
                      A                      A                      A
 Frequencies --   3066.1399              3069.1263              3069.3640
 Red. masses --      1.1046                 1.1048                 1.1031
 Frc consts  --      6.1187                 6.1313                 6.1232
 IR Inten    --      3.0919                43.7008                50.0233

                     97                     98                     99
                      A                      A                      A
 Frequencies --   3071.7958              3083.1459              3084.8988
 Red. masses --      1.1041                 1.0860                 1.0866
 Frc consts  --      6.1381                 6.0823                 6.0927
 IR Inten    --     54.9652                44.7426                27.0922

                    100                    101                    102
                      A                      A                      A
 Frequencies --   3110.5345              3110.5584              3113.3473
 Red. masses --      1.1002                 1.1002                 1.0995
 Frc consts  --      6.2716                 6.2716                 6.2792
 IR Inten    --      2.2971                 2.1284                46.4985

                    103                    104                    105
                      A                      A                      A
 Frequencies --   3116.5099              3117.4531              3117.4790
 Red. masses --      1.1008                 1.1003                 1.1002
 Frc consts  --      6.2994                 6.3001                 6.3001
 IR Inten    --      0.0123                22.8014                24.0143

 - Thermochemistry -
 -------------------
 Temperature   298.150 Kelvin.  Pressure   1.00000 Atm.
 Atom     1 has atomic number  8 and mass  15.99491

 Molecular mass:   222.14399 amu.
 Principal axes and moments of inertia in atomic units:
                           1         2         3
     Eigenvalues --  1888.986914528.049914764.00638
           X            0.99975   0.02250   0.00000
           Y           -0.02250   0.99975  -0.00000
           Z           -0.00000   0.00000   1.00000
 This molecule is an asymmetric top.
 Rotational symmetry number  1.
 Warning -- assumption of classical behavior for rotation
           may cause significant error
 Rotational temperatures (Kelvin)      0.04585     0.01913     0.01818
 Rotational constants (GHZ):           0.95540     0.39857     0.37883
 Zero-point vibrational energy     857280.9 (Joules/Mol)
                                  204.89504 (Kcal/Mol)
 Warning -- explicit consideration of  23 degrees of freedom as
           vibrations may cause significant error
 Vibrational temperatures:     37.78   114.52   163.61   190.08   201.98
          (Kelvin)            216.92   219.30   273.56   277.59   284.45
                              350.78   375.97   392.74   451.48   474.62
                              536.42   555.60   575.97   622.24   635.87
                              675.60   871.65   887.66   915.33   962.01
                              987.24   987.71  1007.41  1030.99  1105.77
                             1110.07  1132.39  1150.78  1222.86  1227.68
                             1263.89  1266.01  1283.51  1292.66  1294.48
                             1306.07  1355.15  1394.10  1406.06  1457.10
                             1502.64  1534.69  1548.89  1556.45  1574.60
                             1615.58  1635.93  1677.97  1731.97  1772.80
                             1822.43  1825.68  1867.43  1870.53  1906.78
                             1908.96  1916.83  1918.79  1924.38  1947.45
                             1957.73  1988.45  1994.30  2010.40  2013.43
                             2025.45  2144.24  2145.77  2146.13  2160.51
                             2161.11  2170.42  2170.97  2177.41  2191.12
                             2191.71  2216.83  2614.47  4348.79  4355.58
                             4357.44  4360.19  4361.31  4376.13  4376.14
                             4379.42  4386.41  4403.81  4411.49  4415.79
                             4416.13  4419.63  4435.96  4438.48  4475.37
                             4475.40  4479.41  4483.96  4485.32  4485.36

 Zero-point correction=                           0.326521 (Hartree/Particle)
 Thermal correction to Energy=                    0.342458
 Thermal correction to Enthalpy=                  0.343402
 Thermal correction to Gibbs Free Energy=         0.284265
 Sum of electronic and zero-point Energies=           -873.076100
 Sum of electronic and thermal Energies=              -873.060163
 Sum of electronic and thermal Enthalpies=            -873.059219
 Sum of electronic and thermal Free Energies=         -873.118356

                     E (Thermal)             CV                S
                      KCal/Mol        Cal/Mol-Kelvin    Cal/Mol-Kelvin
 Total                  214.895             63.429            124.464
 Electronic               0.000              0.000              0.000
 Translational            0.889              2.981             42.097
 Rotational               0.889              2.981             32.077
 Vibrational            213.118             57.468             50.290
 Vibration     1          0.593              1.985              6.094
 Vibration     2          0.600              1.963              3.901
 Vibration     3          0.607              1.938              3.204
 Vibration     4          0.612              1.921              2.915
 Vibration     5          0.615              1.913              2.799
 Vibration     6          0.618              1.902              2.663
 Vibration     7          0.619              1.900              2.642
 Vibration     8          0.633              1.853              2.227
 Vibration     9          0.635              1.850              2.199
 Vibration    10          0.637              1.843              2.154
 Vibration    11          0.659              1.773              1.775
 Vibration    12          0.669              1.744              1.653
 Vibration    13          0.676              1.723              1.577
 Vibration    14          0.702              1.647              1.342
 Vibration    15          0.713              1.616              1.261
 Vibration    16          0.744              1.528              1.068
 Vibration    17          0.755              1.500              1.015
 Vibration    18          0.766              1.469              0.961
 Vibration    19          0.793              1.399              0.851
 Vibration    20          0.802              1.379              0.820
 Vibration    21          0.827              1.318              0.739
 Vibration    22          0.964              1.019              0.440
 Vibration    23          0.977              0.996              0.421

 Normal termination of Gaussian 16 at Fri Feb 23 23:56:01 2024.
