 Gaussian 16, Revision A.03,
 Gaussian 16:  EM64M-G16RevA.03 25-Dec-2016

 ---------------------
 # freq b3lyp/6-31g(d)
 ---------------------

 ---------
 good luck
 ---------
 Symbolic Z-matrix:
 Charge =  0 Multiplicity = 1

                         Standard orientation:
 ---------------------------------------------------------------------
 Center     Atomic      Atomic             Coordinates (Angstroms)
 Number     Number       Type             X           Y           Z
 ---------------------------------------------------------------------
      1          8           0        2.566241   -0.618142   -0.643528
      2          6           0        1.483741   -0.290157   -0.210777
      3          6           0        0.217797    0.036024   -1.004494
      4          6           0       -0.893526   -0.498528   -0.046944
      5          6           0       -0.832559   -2.023276    0.163435
      6          6           0       -2.327273   -0.150645   -0.479735
      7          6           0        0.069730    1.583707   -0.880562
      8          6           0       -0.370292    1.788349    0.605914
      9          6           0       -0.371486    0.345218    1.169045
     10          6           0        1.106919   -0.090260    1.272274
     11          1           0        0.237557   -0.344767   -2.028016
     12          1           0        0.168707   -2.394820    0.400144
     13          1           0       -1.502595   -2.327711    0.976935
     14          1           0       -1.160676   -2.543690   -0.744100
     15          1           0       -2.596164   -0.701021   -1.389261
     16          1           0       -3.038766   -0.444187    0.302378
     17          1           0       -2.481771    0.911902   -0.681384
     18          1           0        1.004497    2.099780   -1.121700
     19          1           0       -0.685111    1.949163   -1.583428
     20          1           0       -1.359950    2.250160    0.672271
     21          1           0        0.319804    2.434112    1.159004
     22          1           0       -0.942174    0.223522    2.095196
     23          1           0        1.757672    0.657269    1.739929
     24          1           0        1.250730   -1.027169    1.821316
 ---------------------------------------------------------------------

 SCF Done:  E(RB3LYP) =  -426.605901892     A.U. after   13 cycles

 The electronic state is 1-A.
 Alpha  occ. eigenvalues --  -19.13253 -10.26621 -10.20538 -10.19516 -10.19311
 Alpha  occ. eigenvalues --  -10.19069 -10.18794 -10.18735 -10.18015 -10.17952
 Alpha  occ. eigenvalues --   -1.03171  -0.88084  -0.76661  -0.74471  -0.71949
 Alpha  occ. eigenvalues --   -0.68163  -0.64163  -0.58299  -0.53708  -0.52555
 Alpha  occ. eigenvalues --   -0.48511  -0.48077  -0.45931  -0.43484  -0.41124
 Alpha  occ. eigenvalues --   -0.40524  -0.40037  -0.39554  -0.38878  -0.37851
 Alpha  occ. eigenvalues --   -0.35991  -0.35274  -0.34545  -0.33564  -0.32572
 Alpha  occ. eigenvalues --   -0.31303  -0.30081  -0.22964
 Alpha virt. eigenvalues --   -0.00916   0.06904   0.10764   0.11258   0.12503
 Alpha virt. eigenvalues --    0.12779   0.13931   0.14655   0.15344   0.16980
 Alpha virt. eigenvalues --    0.17366   0.17923   0.18645   0.20160   0.20337

 Mulliken charges:
               1
     1  O   -0.459216
     2  C    0.449739
     3  C   -0.168149
     4  C    0.092284
     5  C   -0.467077
     6  C   -0.463982
     7  C   -0.297141
     8  C   -0.279423
     9  C   -0.117156
    10  C   -0.361182
    11  H    0.133889
    12  H    0.155098
    13  H    0.144572
    14  H    0.148663
    15  H    0.145853
    16  H    0.144466
    17  H    0.147582
    18  H    0.156482
    19  H    0.153005
    20  H    0.144075
    21  H    0.140121
    22  H    0.120856
    23  H    0.164489
    24  H    0.172151
 Sum of Mulliken charges =  -0.00000

 Dipole moment (field-independent basis, Debye):
    X=             -2.8043    Y=              0.8678    Z=              1.0132  Tot=              3.1054
 Quadrupole moment (field-independent basis, Debye-Ang):
   XX=            -69.8900   YY=            -60.3115   ZZ=            -60.3719
   XY=              2.8570   XZ=              3.4310   YZ=             -0.9930

  Exact polarizability:  94.728  -0.384  87.211   0.185   0.242  83.566
 Approx polarizability: 137.886  -4.491 121.825  -4.062   1.547 124.820

                      1                      2                      3
                      A                      A                      A
 Frequencies --    111.7258               170.5469               204.2554
 Red. masses --      4.8906                 1.1215                 2.5467
 Frc consts  --      0.0360                 0.0192                 0.0626
 IR Inten    --      3.9281                 0.0334                 0.3114

                      4                      5                      6
                      A                      A                      A
 Frequencies --    222.2259               277.1028               287.3487
 Red. masses --      1.1204                 2.7992                 1.7634
 Frc consts  --      0.0326                 0.1266                 0.0858
 IR Inten    --      0.0505                 0.3864                 0.0319

                      7                      8                      9
                      A                      A                      A
 Frequencies --    348.9188               394.0828               416.5105
 Red. masses --      2.5136                 2.3886                 2.0953
 Frc consts  --      0.1803                 0.2186                 0.2142
 IR Inten    --      0.9777                 0.0917                 1.1974

                     10                     11                     12
                      A                      A                      A
 Frequencies --    457.3263               498.6100               553.1049
 Red. masses --      3.5427                 3.1828                 4.1950
 Frc consts  --      0.4366                 0.4662                 0.7561
 IR Inten    --      3.1495                 3.6909                 1.4302

                     13                     14                     15
                      A                      A                      A
 Frequencies --    587.4020               620.1093               696.8462
 Red. masses --      3.0840                 2.9686                 3.1295
 Frc consts  --      0.6269                 0.6726                 0.8954
 IR Inten    --      0.8577                 1.8280                 0.3059

                     16                     17                     18
                      A                      A                      A
 Frequencies --    766.1773               816.1042               861.5002
 Red. masses --      2.4058                 2.0413                 3.2593
 Frc consts  --      0.8321                 0.8010                 1.4252
 IR Inten    --      5.4949                 3.9068                 3.5441

                     19                     20                     21
                      A                      A                      A
 Frequencies --    869.7625               889.8780               939.5073
 Red. masses --      1.7892                 2.8501                 2.0947
 Frc consts  --      0.7974                 1.3297                 1.0894
 IR Inten    --      0.0116                 0.3130                 2.3616

                     22                     23                     24
                      A                      A                      A
 Frequencies --    948.4026               956.9120               966.8935
 Red. masses --      1.8679                 2.0605                 1.4411
 Frc consts  --      0.9899                 1.1117                 0.7938
 IR Inten    --      4.0620                 1.7250                 0.0727

                     25                     26                     27
                      A                      A                      A
 Frequencies --    979.0415              1007.9140              1041.5381
 Red. masses --      1.8113                 2.2764                 1.3955
 Frc consts  --      1.0229                 1.3625                 0.8919
 IR Inten    --      2.8920                 2.2278                 2.2121

                     28                     29                     30
                      A                      A                      A
 Frequencies --   1061.6388              1096.8043              1133.2813
 Red. masses --      1.7675                 1.3770                 1.6402
 Frc consts  --      1.1737                 0.9760                 1.2412
 IR Inten    --      9.9700                10.3978                13.1395

                     31                     32                     33
                      A                      A                      A
 Frequencies --   1156.7448              1179.9966              1204.8247
 Red. masses --      1.3331                 2.0205                 1.8022
 Frc consts  --      1.0510                 1.6575                 1.5414
 IR Inten    --      1.9543                 0.0760                12.2272

                     34                     35                     36
                      A                      A                      A
 Frequencies --   1226.3886              1250.3577              1257.3371
 Red. masses --      1.5424                 1.7118                 1.7591
 Frc consts  --      1.3668                 1.5768                 1.6385
 IR Inten    --      3.0424                 5.3343                 3.7177

                     37                     38                     39
                      A                      A                      A
 Frequencies --   1275.0274              1284.1123              1304.5428
 Red. masses --      2.0205                 1.3821                 1.8129
 Frc consts  --      1.9353                 1.3427                 1.8178
 IR Inten    --      0.5673                 1.1339                10.5280

                     40                     41                     42
                      A                      A                      A
 Frequencies --   1339.3494              1341.5965              1359.0271
 Red. masses --      1.5147                 1.6113                 1.6700
 Frc consts  --      1.6009                 1.7087                 1.8173
 IR Inten    --      0.4618                 1.2933                 2.3361

                     43                     44                     45
                      A                      A                      A
 Frequencies --   1434.6756              1454.8338              1490.4855
 Red. masses --      1.2372                 1.2090                 1.0855
 Frc consts  --      1.5004                 1.5077                 1.4208
 IR Inten    --      4.0169                 4.9919                 9.1060

                     46                     47                     48
                      A                      A                      A
 Frequencies --   1514.1417              1521.1390              1529.0375
 Red. masses --      1.0532                 1.0543                 1.0596
 Frc consts  --      1.4226                 1.4373                 1.4596
 IR Inten    --      2.0924                 5.5201                 3.2173

                     49                     50                     51
                      A                      A                      A
 Frequencies --   1538.5411              1546.9719              1554.6106
 Red. masses --      1.0650                 1.0622                 1.0799
 Frc consts  --      1.4854                 1.4977                 1.5378
 IR Inten    --      0.9947                 3.9451                 4.1491

                     52                     53                     54
                      A                      A                      A
 Frequencies --   1849.3517              3044.9034              3050.6364
 Red. masses --     12.2653                 1.0390                 1.0393
 Frc consts  --     24.7154                 5.6756                 5.6988
 IR Inten    --    238.9715                13.6021                41.0721

                     55                     56                     57
                      A                      A                      A
 Frequencies --   3070.0428              3071.0144              3078.3003
 Red. masses --      1.0608                 1.0616                 1.0618
 Frc consts  --      5.8906                 5.8990                 5.9282
 IR Inten    --     19.0915                11.6231                36.2268

                     58                     59                     60
                      A                      A                      A
 Frequencies --   3096.4921              3100.2680              3102.7257
 Red. masses --      1.0884                 1.1020                 1.1049
 Frc consts  --      6.1485                 6.2405                 6.2669
 IR Inten    --     30.0224                 2.5796                 5.9039

                     61                     62                     63
                      A                      A                      A
 Frequencies --   3107.4396              3109.0826              3119.9287
 Red. masses --      1.1011                 1.1038                 1.1054
 Frc consts  --      6.2646                 6.2867                 6.3396
 IR Inten    --     47.4934                11.8325                50.9634

                     64                     65                     66
                      A                      A                      A
 Frequencies --   3130.1235              3130.5699              3143.1770
 Red. masses --      1.0901                 1.0974                 1.0966
 Frc consts  --      6.2925                 6.3366                 6.3832
 IR Inten    --     19.7909                31.8967                29.7904

 - Thermochemistry -
 -------------------
 Temperature   298.150 Kelvin.  Pressure   1.00000 Atm.
 Atom     1 has atomic number  8 and mass  15.99491

 Molecular mass:   138.10447 amu.
 Principal axes and moments of inertia in atomic units:
                           1         2         3
     Eigenvalues --   949.930731302.112801563.53697
           X            0.99809   0.05134   0.03422
           Y           -0.05062   0.99848  -0.02171
           Z           -0.03529   0.01994   0.99918
 This molecule is an asymmetric top.
 Rotational symmetry number  1.
 Warning -- assumption of classical behavior for rotation
           may cause significant error
 Rotational temperatures (Kelvin)      0.09118     0.06652     0.05540
 Rotational constants (GHZ):           1.89987     1.38601     1.15427
 Zero-point vibrational energy     563137.7 (Joules/Mol)
                                  134.59314 (Kcal/Mol)
 Warning -- explicit consideration of  14 degrees of freedom as
           vibrations may cause significant error
 Vibrational temperatures:    160.75   245.38   293.88   319.73   398.69
          (Kelvin)            413.43   502.02   567.00   599.27   657.99
                              717.39   795.79   845.14   892.20  1002.61
                             1102.36  1174.19  1239.51  1251.39  1280.34
                             1351.74  1364.54  1376.78  1391.14  1408.62
                             1450.16  1498.54  1527.46  1578.06  1630.54
                             1664.30  1697.75  1733.47  1764.50  1798.99
                             1809.03  1834.48  1847.55  1876.95  1927.03
                             1930.26  1955.34  2064.18  2093.18  2144.48
                             2178.51  2188.58  2199.94  2213.62  2225.75
                             2236.74  2660.80  4380.94  4389.19  4417.11
                             4418.50  4428.99  4455.16  4460.59  4464.13
                             4470.91  4473.28  4488.88  4503.55  4504.19
                             4522.33

 Zero-point correction=                           0.214488 (Hartree/Particle)
 Thermal correction to Energy=                    0.223585
 Thermal correction to Enthalpy=                  0.224529
 Thermal correction to Gibbs Free Energy=         0.181286
 Sum of electronic and zero-point Energies=           -426.391414
 Sum of electronic and thermal Energies=              -426.382317
 Sum of electronic and thermal Enthalpies=            -426.381373
 Sum of electronic and thermal Free Energies=         -426.424616

                     E (Thermal)             CV                S
                      KCal/Mol        Cal/Mol-Kelvin    Cal/Mol-Kelvin
 Total                  140.302             37.279             91.014
 Electronic               0.000              0.000              0.000
 Translational            0.889              2.981             40.680
 Rotational               0.889              2.981             29.049
 Vibrational            138.524             31.318             21.284
 Vibration     1          0.607              1.940              3.239
 Vibration     2          0.626              1.879              2.429
 Vibration     3          0.640              1.834              2.094
 Vibration     4          0.648              1.807              1.941
 Vibration     5          0.678              1.716              1.551
 Vibration     6          0.685              1.697              1.490
 Vibration     7          0.726              1.577              1.171
 Vibration     8          0.761              1.483              0.985
 Vibration     9          0.780              1.434              0.904
 Vibration    10          0.815              1.345              0.774
 Vibration    11          0.854              1.253              0.662
 Vibration    12          0.908              1.133              0.538
 Vibration    13          0.945              1.059              0.472
 Vibration    14          0.980              0.989              0.416

 Normal termination of Gaussian 16 at Wed Feb 21 19:26:29 2024.
