 Gaussian 16, Revision A.03,
 Gaussian 16:  EM64M-G16RevA.03 25-Dec-2016

 ---------------------
 # freq b3lyp/6-31g(d)
 ---------------------

 ---------
 good luck
 ---------
 Symbolic Z-matrix:
 Charge =  0 Multiplicity = 1

                         Standard orientation:
 ---------------------------------------------------------------------
 Center     Atomic      Atomic             Coordinates (Angstroms)
 Number     Number       Type             X           Y           Z
 ---------------------------------------------------------------------
      1          8           0       -0.821270    1.904297   -0.040036
      2          6           0       -0.130502    0.908626   -0.066430
      3          6           0       -0.631331   -0.513688   -0.369868
      4          6           0       -2.031716   -0.788425    0.175154
      5          6           0        0.512428   -1.414969    0.130358
      6          6           0        1.792295   -0.585964   -0.123114
      7          6           0        1.376062    0.856054    0.214592
      8          1           0       -0.660209   -0.573810   -1.471569
      9          1           0       -2.725183   -0.009249   -0.155832
     10          1           0       -2.407631   -1.759579   -0.164508
     11          1           0       -2.029965   -0.790900    1.271690
     12          1           0        0.534657   -2.392677   -0.361733
     13          1           0        0.391396   -1.595416    1.207917
     14          1           0        2.075729   -0.656882   -1.181073
     15          1           0        2.646152   -0.936089    0.464878
     16          1           0        1.906745    1.638285   -0.337157
     17          1           0        1.515054    1.072142    1.283530
 ---------------------------------------------------------------------

 SCF Done:  E(RB3LYP) =  -309.888961562     A.U. after   13 cycles

 The electronic state is 1-A.
 Alpha  occ. eigenvalues --  -19.13500 -10.26813 -10.19586 -10.19269 -10.19133
 Alpha  occ. eigenvalues --  -10.19051 -10.17806  -1.03423  -0.84013  -0.75558
 Alpha  occ. eigenvalues --   -0.69282  -0.65031  -0.58585  -0.52014  -0.48444
 Alpha  occ. eigenvalues --   -0.46264  -0.43799  -0.42715  -0.41187  -0.39004
 Alpha  occ. eigenvalues --   -0.38027  -0.36592  -0.35090  -0.33753  -0.33498
 Alpha  occ. eigenvalues --   -0.32708  -0.23495
 Alpha virt. eigenvalues --   -0.01454   0.08344   0.11472   0.11778   0.14362
 Alpha virt. eigenvalues --    0.14804   0.16296   0.17126   0.17803   0.18370
 Alpha virt. eigenvalues --    0.19038   0.20955   0.21067   0.25077   0.26888

 Mulliken charges:
               1
     1  O   -0.453189
     2  C    0.444134
     3  C   -0.157960
     4  C   -0.446264
     5  C   -0.282267
     6  C   -0.283561
     7  C   -0.352792
     8  H    0.157303
     9  H    0.170311
    10  H    0.143596
    11  H    0.145431
    12  H    0.142956
    13  H    0.139804
    14  H    0.143994
    15  H    0.144785
    16  H    0.171279
    17  H    0.172439
 Sum of Mulliken charges =  -0.00000

 Dipole moment (field-independent basis, Debye):
    X=              1.5594    Y=             -2.2925    Z=             -0.0804  Tot=              2.7738
 Quadrupole moment (field-independent basis, Debye-Ang):
   XX=            -42.9568   YY=            -48.2679   ZZ=            -41.2874
   XY=              3.4732   XZ=              0.2872   YZ=              0.2749

  Exact polarizability:  68.017  -0.398  64.319   0.758   0.805  51.984
 Approx polarizability:  87.203  -6.172  91.987   1.298   1.427  78.428

                      1                      2                      3
                      A                      A                      A
 Frequencies --     81.7658               200.4165               204.4685
 Red. masses --      2.7631                 1.8642                 1.0485
 Frc consts  --      0.0109                 0.0441                 0.0258
 IR Inten    --      3.2050                 1.1466                 0.2819

                      4                      5                      6
                      A                      A                      A
 Frequencies --    252.5537               354.6288               458.4931
 Red. masses --      2.8936                 2.1975                 3.8416
 Frc consts  --      0.1087                 0.1628                 0.4758
 IR Inten    --      3.8304                 0.4536                 6.2303

                      7                      8                      9
                      A                      A                      A
 Frequencies --    547.5556               554.6097               619.3791
 Red. masses --      2.1949                 3.5512                 2.6572
 Frc consts  --      0.3877                 0.6436                 0.6006
 IR Inten    --      1.5497                 2.9347                 2.5505

                     10                     11                     12
                      A                      A                      A
 Frequencies --    704.8639               827.4624               870.5322
 Red. masses --      3.1948                 1.9114                 1.6109
 Frc consts  --      0.9352                 0.7711                 0.7193
 IR Inten    --      1.0500                 8.3527                 1.6092

                     13                     14                     15
                      A                      A                      A
 Frequencies --    905.9388               939.3929               980.6075
 Red. masses --      2.0308                 2.1495                 1.2658
 Frc consts  --      0.9820                 1.1176                 0.7172
 IR Inten    --      1.0592                 8.9178                 1.0937

                     16                     17                     18
                      A                      A                      A
 Frequencies --   1003.7884              1025.2189              1062.4182
 Red. masses --      1.3930                 1.6616                 2.2463
 Frc consts  --      0.8270                 1.0290                 1.4939
 IR Inten    --      0.7775                 2.6954                21.6859

                     19                     20                     21
                      A                      A                      A
 Frequencies --   1156.7135              1171.3205              1190.0561
 Red. masses --      2.0172                 2.7009                 1.5013
 Frc consts  --      1.5902                 2.1833                 1.2527
 IR Inten    --      3.7856                51.4542                 1.0603

                     22                     23                     24
                      A                      A                      A
 Frequencies --   1219.8346              1247.9753              1315.0962
 Red. masses --      1.6077                 1.4640                 1.4039
 Frc consts  --      1.4095                 1.3434                 1.4306
 IR Inten    --      0.2994                 1.2652                 2.7801

                     25                     26                     27
                      A                      A                      A
 Frequencies --   1322.5621              1327.4115              1357.6730
 Red. masses --      1.3501                 1.3902                 1.3419
 Frc consts  --      1.3914                 1.4432                 1.4574
 IR Inten    --      1.2217                 2.2381                 1.4178

                     28                     29                     30
                      A                      A                      A
 Frequencies --   1377.1728              1434.7839              1479.0576
 Red. masses --      1.7386                 1.2266                 1.0829
 Frc consts  --      1.9428                 1.4877                 1.3958
 IR Inten    --      6.7151                 3.0243                 7.9915

                     31                     32                     33
                      A                      A                      A
 Frequencies --   1521.8832              1527.2355              1528.6537
 Red. masses --      1.0798                 1.0523                 1.0488
 Frc consts  --      1.4735                 1.4461                 1.4440
 IR Inten    --      3.1852                 8.1639                 4.4281

                     34                     35                     36
                      A                      A                      A
 Frequencies --   1535.7039              1839.5273              2988.2390
 Red. masses --      1.1009                12.6077                 1.0810
 Frc consts  --      1.5297                25.1362                 5.6874
 IR Inten    --      1.7492               181.3058                10.6975

                     37                     38                     39
                      A                      A                      A
 Frequencies --   3037.8957              3043.8861              3052.1139
 Red. masses --      1.0684                 1.0706                 1.0372
 Frc consts  --      5.8092                 5.8441                 5.6929
 IR Inten    --     21.3917                 6.2946                25.8796

                     40                     41                     42
                      A                      A                      A
 Frequencies --   3054.2718              3103.4854              3109.1862
 Red. masses --      1.0637                 1.0954                 1.0967
 Frc consts  --      5.8461                 6.2162                 6.2464
 IR Inten    --     43.8913                28.5983                19.7885

                     43                     44                     45
                      A                      A                      A
 Frequencies --   3115.5162              3116.5850              3134.8154
 Red. masses --      1.1006                 1.1008                 1.1021
 Frc consts  --      6.2941                 6.2998                 6.3810
 IR Inten    --     16.3744                47.6384                14.8719

 - Thermochemistry -
 -------------------
 Temperature   298.150 Kelvin.  Pressure   1.00000 Atm.
 Atom     1 has atomic number  8 and mass  15.99491

 Molecular mass:    98.07317 amu.
 Principal axes and moments of inertia in atomic units:
                           1         2         3
     Eigenvalues --   513.58344 636.101521064.78490
           X            0.98850   0.15117  -0.00268
           Y           -0.15116   0.98851   0.00151
           Z            0.00288  -0.00109   1.00000
 This molecule is an asymmetric top.
 Rotational symmetry number  1.
 Warning -- assumption of classical behavior for rotation
           may cause significant error
 Rotational temperatures (Kelvin)      0.16865     0.13616     0.08134
 Rotational constants (GHZ):           3.51402     2.83719     1.69494
 Zero-point vibrational energy     394186.0 (Joules/Mol)
                                   94.21271 (Kcal/Mol)
 Warning -- explicit consideration of   9 degrees of freedom as
           vibrations may cause significant error
 Vibrational temperatures:    117.64   288.35   294.18   363.37   510.23
          (Kelvin)            659.67   787.81   797.96   891.15  1014.14
                             1190.53  1252.50  1303.44  1351.58  1410.88
                             1444.23  1475.06  1528.58  1664.25  1685.27
                             1712.23  1755.07  1795.56  1892.13  1902.87
                             1909.85  1953.39  1981.44  2064.33  2128.03
                             2189.65  2197.35  2199.39  2209.54  2646.67
                             4299.41  4370.85  4379.47  4391.31  4394.42
                             4465.22  4473.43  4482.53  4484.07  4510.30

 Zero-point correction=                           0.150138 (Hartree/Particle)
 Thermal correction to Energy=                    0.157121
 Thermal correction to Enthalpy=                  0.158065
 Thermal correction to Gibbs Free Energy=         0.119173
 Sum of electronic and zero-point Energies=           -309.738824
 Sum of electronic and thermal Energies=              -309.731841
 Sum of electronic and thermal Enthalpies=            -309.730897
 Sum of electronic and thermal Free Energies=         -309.769788

                     E (Thermal)             CV                S
                      KCal/Mol        Cal/Mol-Kelvin    Cal/Mol-Kelvin
 Total                   98.595             26.030             81.854
 Electronic               0.000              0.000              0.000
 Translational            0.889              2.981             39.660
 Rotational               0.889              2.981             27.344
 Vibrational             96.817             20.069             14.850
 Vibration     1          0.600              1.962              3.848
 Vibration     2          0.638              1.839              2.129
 Vibration     3          0.640              1.834              2.093
 Vibration     4          0.664              1.758              1.713
 Vibration     5          0.730              1.566              1.146
 Vibration     6          0.817              1.342              0.771
 Vibration     7          0.903              1.145              0.549
 Vibration     8          0.910              1.130              0.535
 Vibration     9          0.979              0.991              0.418

 Normal termination of Gaussian 16 at Wed Feb 21 18:08:30 2024.
