 Gaussian 16, Revision A.03,
 Gaussian 16:  EM64M-G16RevA.03 25-Dec-2016

 ---------------------
 # freq b3lyp/6-31g(d)
 ---------------------

 ---------
 good luck
 ---------
 Symbolic Z-matrix:
 Charge =  0 Multiplicity = 1

                         Standard orientation:
 ---------------------------------------------------------------------
 Center     Atomic      Atomic             Coordinates (Angstroms)
 Number     Number       Type             X           Y           Z
 ---------------------------------------------------------------------
      1          8           0        2.110265    1.304345   -0.000000
      2          6           0        1.045196    0.742885   -0.000000
      3          6           0        0.151283    0.231028    1.159953
      4          6           0        0.151283   -1.257614    0.774468
      5          6           0       -0.987141   -1.868521    0.000000
      6          6           0        0.151283   -1.257614   -0.774468
      7          6           0        0.151283    0.231028   -1.159953
      8          6           0       -1.175754    0.933051   -0.787499
      9          6           0       -1.175754    0.933051    0.787499
     10          1           0        0.523259    0.438709    2.163444
     11          1           0        0.821421   -1.911861    1.324439
     12          1           0       -1.022321   -2.955280    0.000000
     13          1           0       -1.970744   -1.409920    0.000000
     14          1           0        0.821421   -1.911861   -1.324439
     15          1           0        0.523259    0.438709   -2.163444
     16          1           0       -1.179338    1.956180   -1.177735
     17          1           0       -2.044908    0.420312   -1.210218
     18          1           0       -1.179338    1.956180    1.177735
     19          1           0       -2.044908    0.420312    1.210218
 ---------------------------------------------------------------------

 SCF Done:  E(RB3LYP) =  -386.035984242     A.U. after   13 cycles

 The electronic state is 1-A'.
 Alpha  occ. eigenvalues --  -19.14085 -10.26874 -10.20143 -10.20122 -10.19809
 Alpha  occ. eigenvalues --  -10.19807 -10.19693 -10.19461 -10.19444  -1.04037
 Alpha  occ. eigenvalues --   -0.90202  -0.80526  -0.73465  -0.70241  -0.60738
 Alpha  occ. eigenvalues --   -0.58739  -0.53797  -0.53603  -0.52323  -0.47814
 Alpha  occ. eigenvalues --   -0.45423  -0.42748  -0.41685  -0.40131  -0.39083
 Alpha  occ. eigenvalues --   -0.37263  -0.36099  -0.35077  -0.34176  -0.33007
 Alpha  occ. eigenvalues --   -0.30354  -0.27148  -0.22942
 Alpha virt. eigenvalues --   -0.00129   0.07596   0.09984   0.12163   0.12752
 Alpha virt. eigenvalues --    0.13500   0.14397   0.15203   0.16013   0.17097
 Alpha virt. eigenvalues --    0.17969   0.20085   0.20277   0.20528   0.21437

 Mulliken charges:
               1
     1  O   -0.438583
     2  C    0.433110
     3  C   -0.167194
     4  C   -0.129628
     5  C   -0.319672
     6  C   -0.129628
     7  C   -0.167194
     8  C   -0.290644
     9  C   -0.290644
    10  H    0.142055
    11  H    0.151116
    12  H    0.155732
    13  H    0.152107
    14  H    0.151116
    15  H    0.142055
    16  H    0.152430
    17  H    0.150518
    18  H    0.152430
    19  H    0.150518
 Sum of Mulliken charges =  -0.00000

 Dipole moment (field-independent basis, Debye):
    X=             -2.4036    Y=             -1.4329    Z=              0.0000  Tot=              2.7983
 Quadrupole moment (field-independent basis, Debye-Ang):
   XX=            -58.9188   YY=            -52.5041   ZZ=            -52.1040
   XY=             -5.0551   XZ=             -0.0000   YZ=             -0.0000

  Exact polarizability:  75.214   5.426  78.640  -0.000  -0.000  70.314
 Approx polarizability: 116.862  13.651 112.534  -0.000   0.000 105.384

                      1                      2                      3
                     A'                     A"                     A"
 Frequencies --    132.7259               278.2301               310.5872
 Red. masses --      6.0611                 2.0208                 2.8282
 Frc consts  --      0.0629                 0.0922                 0.1607
 IR Inten    --      2.1465                 0.0135                 0.5395

                      4                      5                      6
                     A'                     A"                     A'
 Frequencies --    338.1225               464.6616               478.9519
 Red. masses --      2.8710                 3.3361                 3.1722
 Frc consts  --      0.1934                 0.4244                 0.4287
 IR Inten    --      0.2712                 3.5637                 0.1597

                      7                      8                      9
                     A"                     A'                     A"
 Frequencies --    587.4264               638.4061               713.1921
 Red. masses --      4.8423                 3.5624                 4.3791
 Frc consts  --      0.9845                 0.8554                 1.3124
 IR Inten    --      3.9874                 0.8188                 3.0914

                     10                     11                     12
                     A'                     A'                     A"
 Frequencies --    752.4395               760.2312               762.0441
 Red. masses --      4.4985                 2.4621                 2.0664
 Frc consts  --      1.5006                 0.8384                 0.7070
 IR Inten    --      7.6641                 3.0276                16.6109

                     13                     14                     15
                     A'                     A'                     A'
 Frequencies --    805.2944               853.9707               872.7106
 Red. masses --      1.9086                 2.7009                 1.6020
 Frc consts  --      0.7293                 1.1605                 0.7189
 IR Inten    --      2.0550                 1.2181                 0.4049

                     16                     17                     18
                     A'                     A"                     A'
 Frequencies --    894.4185               923.8251               953.6814
 Red. masses --      2.2809                 1.8793                 2.9237
 Frc consts  --      1.0751                 0.9450                 1.5667
 IR Inten    --      0.3557                 0.0001                 1.5833

                     19                     20                     21
                     A"                     A'                     A"
 Frequencies --    970.7407              1004.4061              1059.8387
 Red. masses --      1.7101                 2.0251                 1.5061
 Frc consts  --      0.9495                 1.2037                 0.9968
 IR Inten    --      6.7717                 0.1133                 4.6282

                     22                     23                     24
                     A"                     A'                     A"
 Frequencies --   1091.7445              1095.7937              1099.6811
 Red. masses --      1.6459                 1.3302                 1.8706
 Frc consts  --      1.1559                 0.9411                 1.3328
 IR Inten    --     10.6464                 0.5446                 3.3586

                     25                     26                     27
                     A"                     A"                     A'
 Frequencies --   1102.5003              1133.4098              1136.5875
 Red. masses --      1.3310                 2.8347                 1.1779
 Frc consts  --      0.9532                 2.1456                 0.8966
 IR Inten    --      6.8161                10.6407                 3.1001

                     28                     29                     30
                     A"                     A'                     A'
 Frequencies --   1190.9039              1204.4295              1218.6059
 Red. masses --      1.5253                 1.9202                 1.4826
 Frc consts  --      1.2746                 1.6412                 1.2972
 IR Inten    --      0.0107                 0.1300                 1.5017

                     31                     32                     33
                     A"                     A'                     A"
 Frequencies --   1266.1596              1271.6398              1304.7328
 Red. masses --      1.1932                 1.5522                 1.5672
 Frc consts  --      1.1270                 1.4788                 1.5719
 IR Inten    --      0.4082                 2.0207                 0.3169

                     34                     35                     36
                     A"                     A'                     A"
 Frequencies --   1321.1034              1354.4050              1364.0716
 Red. masses --      1.3577                 1.4185                 1.5449
 Frc consts  --      1.3961                 1.5331                 1.6936
 IR Inten    --      0.0749                 0.1036                 0.0009

                     37                     38                     39
                     A'                     A'                     A"
 Frequencies --   1387.5721              1511.1178              1522.6585
 Red. masses --      1.8605                 1.2046                 1.0771
 Frc consts  --      2.1106                 1.6207                 1.4714
 IR Inten    --      1.2296                 2.3043                 1.2873

                     40                     41                     42
                     A'                     A'                     A"
 Frequencies --   1546.3508              1874.0539              3068.8228
 Red. masses --      1.0948                12.3169                 1.0609
 Frc consts  --      1.5424                25.4869                 5.8866
 IR Inten    --      4.6763               321.6006                24.4019

                     43                     44                     45
                     A'                     A"                     A'
 Frequencies --   3078.2169              3105.0032              3122.9147
 Red. masses --      1.0605                 1.1066                 1.1061
 Frc consts  --      5.9207                 6.2859                 6.3556
 IR Inten    --     39.7655                 1.0065                34.5676

                     46                     47                     48
                     A"                     A'                     A'
 Frequencies --   3149.9336              3151.2099              3152.3574
 Red. masses --      1.0883                 1.0891                 1.0564
 Frc consts  --      6.3620                 6.3720                 6.1849
 IR Inten    --     24.2672                12.3285                14.2612

                     49                     50                     51
                     A"                     A'                     A'
 Frequencies --   3183.7275              3190.3079              3228.2915
 Red. masses --      1.0897                 1.0933                 1.1136
 Frc consts  --      6.5077                 6.5561                 6.8382
 IR Inten    --     14.8439                14.5351                12.9069

 - Thermochemistry -
 -------------------
 Temperature   298.150 Kelvin.  Pressure   1.00000 Atm.
 Atom     1 has atomic number  8 and mass  15.99491

 Molecular mass:   122.07317 amu.
 Principal axes and moments of inertia in atomic units:
                           1         2         3
     Eigenvalues --   688.79555 993.434571108.79800
           X            0.64472   0.76442   0.00000
           Y            0.76442  -0.64472   0.00000
           Z            0.00000   0.00000   1.00000
 This molecule is an asymmetric top.
 Rotational symmetry number  1.
 Warning -- assumption of classical behavior for rotation
           may cause significant error
 Rotational temperatures (Kelvin)      0.12575     0.08719     0.07812
 Rotational constants (GHZ):           2.62014     1.81667     1.62766
 Zero-point vibrational energy     430561.2 (Joules/Mol)
                                  102.90660 (Kcal/Mol)
 Warning -- explicit consideration of   7 degrees of freedom as
           vibrations may cause significant error
 Vibrational temperatures:    190.96   400.31   446.87   486.48   668.54
          (Kelvin)            689.10   845.18   918.52  1026.12  1082.59
                             1093.80  1096.41  1158.64  1228.67  1255.64
                             1286.87  1329.18  1372.13  1396.68  1445.12
                             1524.87  1570.78  1576.60  1582.20  1586.25
                             1630.72  1635.30  1713.45  1732.91  1753.30
                             1821.72  1829.61  1877.22  1900.77  1948.69
                             1962.59  1996.41  2174.16  2190.77  2224.85
                             2696.35  4415.35  4428.87  4467.41  4493.18
                             4532.05  4533.89  4535.54  4580.67  4590.14
                             4644.79

 Zero-point correction=                           0.163992 (Hartree/Particle)
 Thermal correction to Energy=                    0.170645
 Thermal correction to Enthalpy=                  0.171589
 Thermal correction to Gibbs Free Energy=         0.133254
 Sum of electronic and zero-point Energies=           -385.871992
 Sum of electronic and thermal Energies=              -385.865340
 Sum of electronic and thermal Enthalpies=            -385.864395
 Sum of electronic and thermal Free Energies=         -385.902730

                     E (Thermal)             CV                S
                      KCal/Mol        Cal/Mol-Kelvin    Cal/Mol-Kelvin
 Total                  107.081             28.134             80.682
 Electronic               0.000              0.000              0.000
 Translational            0.889              2.981             40.313
 Rotational               0.889              2.981             28.119
 Vibrational            105.304             22.173             12.250
 Vibration     1          0.613              1.921              2.906
 Vibration     2          0.679              1.714              1.545
 Vibration     3          0.699              1.654              1.359
 Vibration     4          0.718              1.599              1.221
 Vibration     5          0.822              1.328              0.753
 Vibration     6          0.835              1.297              0.713
 Vibration     7          0.945              1.059              0.472

 Normal termination of Gaussian 16 at Wed Feb 21 18:20:36 2024.
