 Gaussian 16, Revision A.03,
 Gaussian 16:  EM64M-G16RevA.03 25-Dec-2016

 ---------------------
 # freq b3lyp/6-31g(d)
 ---------------------

 ---------
 good luck
 ---------
 Symbolic Z-matrix:
 Charge =  0 Multiplicity = 1

                         Standard orientation:
 ---------------------------------------------------------------------
 Center     Atomic      Atomic             Coordinates (Angstroms)
 Number     Number       Type             X           Y           Z
 ---------------------------------------------------------------------
      1          8           0       -1.513662    1.881644    0.208113
      2          6           0       -0.907883    0.932713   -0.255869
      3          6           0       -1.541220   -0.450012   -0.420215
      4          6           0       -2.986692   -0.490429    0.073967
      5          6           0       -0.639203   -1.507123    0.262742
      6          6           0        0.824753   -1.416222   -0.191475
      7          6           0        1.454798   -0.015205    0.002112
      8          6           0        1.585543    0.330630    1.499313
      9          6           0        2.852150    0.013066   -0.640290
     10          6           0        0.546139    1.034582   -0.697812
     11          1           0       -1.520070   -0.663801   -1.502307
     12          1           0       -3.600995    0.253245   -0.441613
     13          1           0       -3.423677   -1.481277   -0.093770
     14          1           0       -3.037970   -0.267832    1.145021
     15          1           0       -0.708569   -1.382396    1.351551
     16          1           0       -1.034633   -2.507215    0.045031
     17          1           0        0.882773   -1.680848   -1.257844
     18          1           0        1.426595   -2.162707    0.343954
     19          1           0        2.191138   -0.420796    2.020499
     20          1           0        0.614553    0.388045    2.002762
     21          1           0        2.074114    1.303541    1.628571
     22          1           0        3.310236    1.005070   -0.546215
     23          1           0        2.804996   -0.235784   -1.707588
     24          1           0        3.520110   -0.710314   -0.156424
     25          1           0        0.896400    2.054316   -0.506978
     26          1           0        0.583991    0.863596   -1.784401
 ---------------------------------------------------------------------

 SCF Done:  E(RB3LYP) =  -427.834633527     A.U. after   14 cycles

 The electronic state is 1-A.
 Alpha  occ. eigenvalues --  -19.13229 -10.26509 -10.20697 -10.19534 -10.19085
 Alpha  occ. eigenvalues --  -10.18715 -10.18605 -10.17859 -10.17688 -10.17192
 Alpha  occ. eigenvalues --   -1.03067  -0.84500  -0.79201  -0.73025  -0.71316
 Alpha  occ. eigenvalues --   -0.68871  -0.64382  -0.60706  -0.54854  -0.52032
 Alpha  occ. eigenvalues --   -0.46960  -0.46128  -0.45550  -0.44014  -0.43791
 Alpha  occ. eigenvalues --   -0.42542  -0.39877  -0.39220  -0.38307  -0.37946
 Alpha  occ. eigenvalues --   -0.37007  -0.36600  -0.35507  -0.34806  -0.33284
 Alpha  occ. eigenvalues --   -0.32065  -0.31749  -0.30955  -0.23347
 Alpha virt. eigenvalues --   -0.01076   0.07594   0.10040   0.10663   0.12827
 Alpha virt. eigenvalues --    0.12978   0.13958   0.14622   0.16062   0.16452
 Alpha virt. eigenvalues --    0.16726   0.17886   0.18047   0.19156   0.19319

 Mulliken charges:
               1
     1  O   -0.455011
     2  C    0.448696
     3  C   -0.164804
     4  C   -0.438132
     5  C   -0.275027
     6  C   -0.264960
     7  C    0.085235
     8  C   -0.453962
     9  C   -0.445203
    10  C   -0.339466
    11  H    0.139614
    12  H    0.158835
    13  H    0.135206
    14  H    0.153716
    15  H    0.144172
    16  H    0.140875
    17  H    0.127219
    18  H    0.133981
    19  H    0.141338
    20  H    0.154235
    21  H    0.147706
    22  H    0.143988
    23  H    0.138609
    24  H    0.142171
    25  H    0.155630
    26  H    0.145340
 Sum of Mulliken charges =  -0.00000

 Dipole moment (field-independent basis, Debye):
    X=              1.5644    Y=             -2.2879    Z=             -0.8530  Tot=              2.8999
 Quadrupole moment (field-independent basis, Debye-Ang):
   XX=            -64.7683   YY=            -67.5505   ZZ=            -61.6185
   XY=              4.7079   XZ=              1.4440   YZ=             -1.3070

  Exact polarizability: 105.377  -0.415  91.896  -1.445   1.544  81.580
 Approx polarizability: 131.116  -7.018 137.932  -3.560   6.435 124.831

                      1                      2                      3
                      A                      A                      A
 Frequencies --     76.8166                97.9353               198.2009
 Red. masses --      3.6545                 3.6704                 1.0574
 Frc consts  --      0.0127                 0.0207                 0.0245
 IR Inten    --      1.0330                 1.6586                 0.0838

                      4                      5                      6
                      A                      A                      A
 Frequencies --    215.2839               248.2917               250.6533
 Red. masses --      1.1688                 1.4996                 1.8817
 Frc consts  --      0.0319                 0.0545                 0.0697
 IR Inten    --      0.0406                 0.0171                 0.2994

                      7                      8                      9
                      A                      A                      A
 Frequencies --    272.6860               293.7989               300.6683
 Red. masses --      1.9461                 1.7826                 2.7791
 Frc consts  --      0.0853                 0.0907                 0.1480
 IR Inten    --      1.6665                 1.8188                 1.2331

                     10                     11                     12
                      A                      A                      A
 Frequencies --    328.0825               384.8428               408.1713
 Red. masses --      2.4623                 2.6545                 2.0022
 Frc consts  --      0.1562                 0.2316                 0.1965
 IR Inten    --      0.8026                 1.4975                 0.3550

                     13                     14                     15
                      A                      A                      A
 Frequencies --    430.2388               449.3283               530.3963
 Red. masses --      2.7387                 2.5403                 2.8159
 Frc consts  --      0.2987                 0.3022                 0.4667
 IR Inten    --      1.7790                 1.2116                 3.5555

                     16                     17                     18
                      A                      A                      A
 Frequencies --    614.0189               650.7516               730.9711
 Red. masses --      3.5084                 3.8505                 2.2142
 Frc consts  --      0.7793                 0.9607                 0.6971
 IR Inten    --      3.0601                 0.8808                 5.0206

                     19                     20                     21
                      A                      A                      A
 Frequencies --    750.0418               853.7511               892.1847
 Red. masses --      2.7261                 2.0892                 2.0075
 Frc consts  --      0.9036                 0.8972                 0.9415
 IR Inten    --      1.8428                 0.3493                 1.0189

                     22                     23                     24
                      A                      A                      A
 Frequencies --    928.3339               933.6676               952.3430
 Red. masses --      1.9129                 1.7969                 1.6418
 Frc consts  --      0.9713                 0.9229                 0.8773
 IR Inten    --      2.5833                 0.9989                 0.9696

                     25                     26                     27
                      A                      A                      A
 Frequencies --    963.5981               975.2596              1026.7606
 Red. masses --      1.3755                 1.6509                 1.6175
 Frc consts  --      0.7525                 0.9251                 1.0047
 IR Inten    --      0.5832                 3.7192                 1.7866

                     28                     29                     30
                      A                      A                      A
 Frequencies --   1047.2900              1050.6731              1093.9393
 Red. masses --      1.5726                 1.5269                 2.0429
 Frc consts  --      1.0162                 0.9931                 1.4404
 IR Inten    --      1.6855                 2.1360                19.4029

                     31                     32                     33
                      A                      A                      A
 Frequencies --   1111.8784              1155.7233              1189.6715
 Red. masses --      1.5495                 2.0876                 1.9486
 Frc consts  --      1.1286                 1.6429                 1.6249
 IR Inten    --      0.4394                10.1976                 0.6888

                     34                     35                     36
                      A                      A                      A
 Frequencies --   1206.6781              1217.3536              1245.6903
 Red. masses --      1.7472                 1.9007                 1.7877
 Frc consts  --      1.4989                 1.6596                 1.6345
 IR Inten    --     21.3575                 1.8611                23.8401

                     37                     38                     39
                      A                      A                      A
 Frequencies --   1296.5835              1314.6077              1328.2165
 Red. masses --      1.8955                 1.5674                 1.4966
 Frc consts  --      1.8775                 1.5960                 1.5556
 IR Inten    --      4.0602                 0.8145                11.2695

                     40                     41                     42
                      A                      A                      A
 Frequencies --   1342.9196              1363.0748              1394.9160
 Red. masses --      1.4356                 1.4569                 1.4731
 Frc consts  --      1.5254                 1.5949                 1.6889
 IR Inten    --      1.2148                 7.7309                 0.2748

                     43                     44                     45
                      A                      A                      A
 Frequencies --   1406.7617              1430.3788              1441.1977
 Red. masses --      1.7559                 1.2397                 1.2400
 Frc consts  --      2.0473                 1.4944                 1.5175
 IR Inten    --      7.1076                 5.7991                 4.4969

                     46                     47                     48
                      A                      A                      A
 Frequencies --   1451.6391              1495.1351              1509.0462
 Red. masses --      1.2241                 1.0907                 1.0729
 Frc consts  --      1.5198                 1.4365                 1.4395
 IR Inten    --      5.6086                 4.5093                 0.6293

                     49                     50                     51
                      A                      A                      A
 Frequencies --   1514.5714              1521.1694              1524.6051
 Red. masses --      1.0499                 1.0474                 1.0497
 Frc consts  --      1.4190                 1.4280                 1.4376
 IR Inten    --      0.5025                 1.9513                 7.9173

                     52                     53                     54
                      A                      A                      A
 Frequencies --   1526.4083              1529.4040              1534.8344
 Red. masses --      1.0654                 1.0731                 1.0580
 Frc consts  --      1.4625                 1.4789                 1.4685
 IR Inten    --      6.8816                 5.4722                 6.0054

                     55                     56                     57
                      A                      A                      A
 Frequencies --   1543.0956              1807.6035              2990.0761
 Red. masses --      1.0624                11.2540                 1.0810
 Frc consts  --      1.4905                21.6652                 5.6941
 IR Inten    --      3.7395               158.4577                10.4270

                     58                     59                     60
                      A                      A                      A
 Frequencies --   3018.4942              3024.9389              3036.7097
 Red. masses --      1.0644                 1.0649                 1.0367
 Frc consts  --      5.7137                 5.7408                 5.6326
 IR Inten    --     18.6524                22.2629                31.7126

                     61                     62                     63
                      A                      A                      A
 Frequencies --   3040.5612              3047.3070              3057.7571
 Red. masses --      1.0598                 1.0400                 1.0384
 Frc consts  --      5.7726                 5.6903                 5.7202
 IR Inten    --     25.9144                12.0196                28.0114

                     64                     65                     66
                      A                      A                      A
 Frequencies --   3065.1867              3079.6070              3102.6316
 Red. masses --      1.0930                 1.1045                 1.1011
 Frc consts  --      6.0502                 6.1718                 6.2452
 IR Inten    --     41.7110                39.0237                17.6005

                     67                     68                     69
                      A                      A                      A
 Frequencies --   3104.3580              3106.6003              3111.9327
 Red. masses --      1.1008                 1.1000                 1.1006
 Frc consts  --      6.2503                 6.2549                 6.2798
 IR Inten    --      1.5236                30.6877                60.6790

                     70                     71                     72
                      A                      A                      A
 Frequencies --   3119.3066              3123.3457              3137.8559
 Red. masses --      1.1008                 1.1023                 1.1017
 Frc consts  --      6.3108                 6.3355                 6.3910
 IR Inten    --     33.4376                28.6729                20.9791

 - Thermochemistry -
 -------------------
 Temperature   298.150 Kelvin.  Pressure   1.00000 Atm.
 Atom     1 has atomic number  8 and mass  15.99491

 Molecular mass:   140.12012 amu.
 Principal axes and moments of inertia in atomic units:
                           1         2         3
     Eigenvalues --   829.083271795.326832141.71306
           X            0.99942   0.03413  -0.00148
           Y           -0.03414   0.99940  -0.00504
           Z            0.00130   0.00509   0.99999
 This molecule is an asymmetric top.
 Rotational symmetry number  1.
 Warning -- assumption of classical behavior for rotation
           may cause significant error
 Rotational temperatures (Kelvin)      0.10447     0.04824     0.04044
 Rotational constants (GHZ):           2.17679     1.00524     0.84266
 Zero-point vibrational energy     619180.0 (Joules/Mol)
                                  147.98757 (Kcal/Mol)
 Warning -- explicit consideration of  16 degrees of freedom as
           vibrations may cause significant error
 Vibrational temperatures:    110.52   140.91   285.17   309.75   357.24
          (Kelvin)            360.63   392.33   422.71   432.59   472.04
                              553.70   587.27   619.02   646.48   763.12
                              883.44   936.29  1051.70  1079.14  1228.36
                             1283.65  1335.67  1343.34  1370.21  1386.40
                             1403.18  1477.28  1506.82  1511.68  1573.93
                             1599.75  1662.83  1711.67  1736.14  1751.50
                             1792.27  1865.49  1891.43  1911.01  1932.16
                             1961.16  2006.97  2024.02  2058.00  2073.56
                             2088.58  2151.17  2171.18  2179.13  2188.62
                             2193.57  2196.16  2200.47  2208.28  2220.17
                             2600.74  4302.05  4342.94  4352.21  4369.15
                             4374.69  4384.40  4399.43  4410.12  4430.87
                             4463.99  4466.48  4469.70  4477.38  4487.99
                             4493.80  4514.67

 Zero-point correction=                           0.235833 (Hartree/Particle)
 Thermal correction to Energy=                    0.246499
 Thermal correction to Enthalpy=                  0.247443
 Thermal correction to Gibbs Free Energy=         0.200722
 Sum of electronic and zero-point Energies=           -427.598800
 Sum of electronic and thermal Energies=              -427.588135
 Sum of electronic and thermal Enthalpies=            -427.587190
 Sum of electronic and thermal Free Energies=         -427.633911

                     E (Thermal)             CV                S
                      KCal/Mol        Cal/Mol-Kelvin    Cal/Mol-Kelvin
 Total                  154.680             41.746             98.333
 Electronic               0.000              0.000              0.000
 Translational            0.889              2.981             40.724
 Rotational               0.889              2.981             29.546
 Vibrational            152.903             35.784             28.064
 Vibration     1          0.599              1.965              3.971
 Vibration     2          0.603              1.951              3.495
 Vibration     3          0.637              1.842              2.150
 Vibration     4          0.645              1.818              1.998
 Vibration     5          0.662              1.766              1.743
 Vibration     6          0.663              1.762              1.726
 Vibration     7          0.676              1.724              1.579
 Vibration     8          0.689              1.685              1.452
 Vibration     9          0.693              1.672              1.413
 Vibration    10          0.711              1.619              1.270
 Vibration    11          0.754              1.503              1.020
 Vibration    12          0.773              1.452              0.933
 Vibration    13          0.791              1.404              0.858
 Vibration    14          0.808              1.362              0.798
 Vibration    15          0.885              1.183              0.586
 Vibration    16          0.973              1.002              0.426

 Normal termination of Gaussian 16 at Wed Feb 21 20:25:39 2024.
