 Gaussian 16, Revision A.03,
 Gaussian 16:  EM64M-G16RevA.03 25-Dec-2016

 ---------------------
 # freq b3lyp/6-31g(d)
 ---------------------

 ---------
 good luck
 ---------
 Symbolic Z-matrix:
 Charge =  0 Multiplicity = 1

                         Standard orientation:
 ---------------------------------------------------------------------
 Center     Atomic      Atomic             Coordinates (Angstroms)
 Number     Number       Type             X           Y           Z
 ---------------------------------------------------------------------
      1          8           0        3.436181   -1.187270   -0.554010
      2          6           0        2.427410   -0.552069   -0.320316
      3          6           0        1.853750    0.503944   -1.270512
      4          6           0        0.509715    1.014753   -0.719158
      5          6           0       -0.416044   -0.212795   -0.556906
      6          6           0       -1.863520    0.173748   -0.297046
      7          8           0       -2.311648    1.301237   -0.293752
      8          8           0       -2.625410   -0.924933   -0.090107
      9          6           0       -4.022623   -0.675639    0.139022
     10          6           0        0.165750   -1.168907    0.538475
     11          6           0        1.585830   -0.701587    0.940758
     12          6           0        1.475651    0.692518    1.607072
     13          6           0        0.754078    1.686482    0.649096
     14          1           0        2.583411    1.319654   -1.364408
     15          1           0        1.754328    0.060144   -2.269720
     16          1           0        0.051102    1.730199   -1.407916
     17          1           0       -0.433424   -0.757748   -1.511635
     18          1           0       -4.468330   -0.169972   -0.721643
     19          1           0       -4.161662   -0.052892    1.026709
     20          1           0       -4.474345   -1.657324    0.284032
     21          1           0       -0.466274   -1.164347    1.433699
     22          1           0        0.183230   -2.200819    0.175661
     23          1           0        2.061935   -1.427924    1.605617
     24          1           0        0.923846    0.585912    2.548790
     25          1           0        2.475355    1.055026    1.872389
     26          1           0        1.359922    2.588430    0.504096
     27          1           0       -0.202048    2.016687    1.064370
 ---------------------------------------------------------------------

 SCF Done:  E(RB3LYP) =  -615.176515702     A.U. after   14 cycles

 The electronic state is 1-A.
 Alpha  occ. eigenvalues --  -19.19804 -19.14241 -19.13335 -10.31861 -10.26851
 Alpha  occ. eigenvalues --  -10.24589 -10.21173 -10.20194 -10.19886 -10.19693
 Alpha  occ. eigenvalues --  -10.19345 -10.19190 -10.18561  -1.10677  -1.03270
 Alpha  occ. eigenvalues --   -1.01864  -0.86766  -0.77664  -0.76706  -0.73356
 Alpha  occ. eigenvalues --   -0.71696  -0.63702  -0.61690  -0.58527  -0.56114
 Alpha  occ. eigenvalues --   -0.52508  -0.51215  -0.48766  -0.48122  -0.47345
 Alpha  occ. eigenvalues --   -0.46858  -0.44875  -0.42462  -0.41625  -0.41067
 Alpha  occ. eigenvalues --   -0.40436  -0.39279  -0.39213  -0.38871  -0.37603
 Alpha  occ. eigenvalues --   -0.36654  -0.36230  -0.34134  -0.32420  -0.31671
 Alpha  occ. eigenvalues --   -0.30830  -0.30307  -0.27415  -0.23334
 Alpha virt. eigenvalues --   -0.01339   0.00466   0.06853   0.09909   0.11005
 Alpha virt. eigenvalues --    0.11580   0.12377   0.12891   0.14695   0.15271
 Alpha virt. eigenvalues --    0.15347   0.16307   0.16502   0.17125   0.17703

 Mulliken charges:
               1
     1  O   -0.455835
     2  C    0.456259
     3  C   -0.367714
     4  C   -0.097922
     5  C   -0.187284
     6  C    0.616054
     7  O   -0.481449
     8  O   -0.453027
     9  C   -0.218802
    10  C   -0.286935
    11  C   -0.170197
    12  C   -0.290769
    13  C   -0.285233
    14  H    0.171293
    15  H    0.167859
    16  H    0.146119
    17  H    0.165366
    18  H    0.171804
    19  H    0.170566
    20  H    0.166624
    21  H    0.154695
    22  H    0.161620
    23  H    0.144100
    24  H    0.145930
    25  H    0.151096
    26  H    0.140627
    27  H    0.165154
 Sum of Mulliken charges =  -0.00000

 Dipole moment (field-independent basis, Debye):
    X=             -2.6555    Y=             -0.0201    Z=              0.7378  Tot=              2.7561
 Quadrupole moment (field-independent basis, Debye-Ang):
   XX=            -82.5811   YY=            -80.6847   ZZ=            -73.2583
   XY=             12.0472   XZ=              1.2859   YZ=             -0.8267

  Exact polarizability: 121.112  -0.746  98.729  -2.992  -1.624  90.627
 Approx polarizability: 156.108  -9.025 156.261  -6.180  -0.759 132.609

                      1                      2                      3
                      A                      A                      A
 Frequencies --     30.3996                46.6763               100.3354
 Red. masses --      4.8318                 4.7769                 3.7295
 Frc consts  --      0.0026                 0.0061                 0.0221
 IR Inten    --      0.7563                 4.3398                 1.9307

                      4                      5                      6
                      A                      A                      A
 Frequencies --    128.8890               145.0489               150.2526
 Red. masses --      1.1583                 3.6532                 2.4888
 Frc consts  --      0.0113                 0.0453                 0.0331
 IR Inten    --      0.3381                 1.2631                 1.6882

                      7                      8                      9
                      A                      A                      A
 Frequencies --    221.1994               276.5664               302.9033
 Red. masses --      2.3889                 4.3923                 3.0852
 Frc consts  --      0.0689                 0.1979                 0.1668
 IR Inten    --      3.5327                 4.5726                 8.9534

                     10                     11                     12
                      A                      A                      A
 Frequencies --    319.1424               349.5415               407.4013
 Red. masses --      2.3611                 3.0754                 4.1408
 Frc consts  --      0.1417                 0.2214                 0.4049
 IR Inten    --      2.9303                 4.2847                 6.0703

                     13                     14                     15
                      A                      A                      A
 Frequencies --    454.2837               474.7068               543.7910
 Red. masses --      4.8852                 5.6892                 3.5445
 Frc consts  --      0.5940                 0.7554                 0.6175
 IR Inten    --      8.4380                 2.3881                 2.5836

                     16                     17                     18
                      A                      A                      A
 Frequencies --    610.0441               611.8339               647.5826
 Red. masses --      2.3566                 5.8976                 4.6169
 Frc consts  --      0.5167                 1.3007                 1.1408
 IR Inten    --      0.0840                 3.7403                 3.6428

                     19                     20                     21
                      A                      A                      A
 Frequencies --    732.7113               771.0339               812.2743
 Red. masses --      4.2830                 3.9408                 3.3066
 Frc consts  --      1.3548                 1.3803                 1.2854
 IR Inten    --      1.3100                 7.4991                 2.4865

                     22                     23                     24
                      A                      A                      A
 Frequencies --    830.0219               852.4325               871.1748
 Red. masses --      1.3939                 2.7353                 2.4935
 Frc consts  --      0.5658                 1.1711                 1.1150
 IR Inten    --      3.8116                 5.1664                 5.3553

                     25                     26                     27
                      A                      A                      A
 Frequencies --    906.7069               918.5548               960.8502
 Red. masses --      1.8923                 2.8507                 2.7557
 Frc consts  --      0.9166                 1.4171                 1.4990
 IR Inten    --      0.7102                 1.1823                 6.0377

                     28                     29                     30
                      A                      A                      A
 Frequencies --    970.4755               996.8037              1052.8887
 Red. masses --      2.8484                 2.7732                 3.2049
 Frc consts  --      1.5806                 1.6235                 2.0933
 IR Inten    --      6.0213                 5.6688                14.7565

                     31                     32                     33
                      A                      A                      A
 Frequencies --   1059.3851              1067.7538              1090.5023
 Red. masses --      2.5837                 2.3869                 2.1461
 Frc consts  --      1.7084                 1.6033                 1.5037
 IR Inten    --      1.5192                14.2772                24.9091

                     34                     35                     36
                      A                      A                      A
 Frequencies --   1093.6961              1132.1889              1164.2368
 Red. masses --      2.1392                 1.4214                 1.1272
 Frc consts  --      1.5076                 1.0735                 0.9002
 IR Inten    --     15.3298                17.4578                11.8988

                     37                     38                     39
                      A                      A                      A
 Frequencies --   1184.7037              1205.8302              1216.7280
 Red. masses --      1.2748                 1.2863                 1.5484
 Frc consts  --      1.0541                 1.1019                 1.3506
 IR Inten    --      0.9182                 9.3936                28.3931

                     40                     41                     42
                      A                      A                      A
 Frequencies --   1228.1215              1249.6937              1255.2853
 Red. masses --      1.7501                 1.5048                 1.9173
 Frc consts  --      1.5552                 1.3847                 1.7801
 IR Inten    --    161.7761                20.5972               159.4779

                     43                     44                     45
                      A                      A                      A
 Frequencies --   1267.3632              1298.1039              1308.8791
 Red. masses --      1.2201                 1.8379                 1.5246
 Frc consts  --      1.1546                 1.8247                 1.5389
 IR Inten    --      2.6193                33.1865                 0.7132

                     46                     47                     48
                      A                      A                      A
 Frequencies --   1342.9028              1352.0293              1354.4368
 Red. masses --      1.4778                 1.3834                 1.4890
 Frc consts  --      1.5702                 1.4900                 1.6094
 IR Inten    --      1.4403                 2.5282                24.9822

                     49                     50                     51
                      A                      A                      A
 Frequencies --   1368.6788              1379.0147              1396.2624
 Red. masses --      1.4980                 1.7100                 1.4129
 Frc consts  --      1.6533                 1.9159                 1.6229
 IR Inten    --      0.6925                37.8133                 3.2315

                     52                     53                     54
                      A                      A                      A
 Frequencies --   1400.6933              1475.9100              1492.1886
 Red. masses --      1.6207                 1.0863                 1.2075
 Frc consts  --      1.8735                 1.3942                 1.5841
 IR Inten    --     18.7384                 8.8444                 7.8807

                     55                     56                     57
                      A                      A                      A
 Frequencies --   1512.8110              1520.7201              1524.5854
 Red. masses --      1.0484                 1.0775                 1.0483
 Frc consts  --      1.4136                 1.4681                 1.4356
 IR Inten    --      6.1300                 1.3086                10.1415

                     58                     59                     60
                      A                      A                      A
 Frequencies --   1529.6258              1546.8695              1812.8583
 Red. masses --      1.0806                 1.0909                11.5419
 Frc consts  --      1.4897                 1.5379                22.3489
 IR Inten    --      2.9495                 5.7915               203.3965

                     61                     62                     63
                      A                      A                      A
 Frequencies --   1827.3882              3027.3141              3045.5269
 Red. masses --     11.8670                 1.0831                 1.0611
 Frc consts  --     23.3482                 5.8484                 5.7984
 IR Inten    --    202.7324                11.8798                14.9480

                     64                     65                     66
                      A                      A                      A
 Frequencies --   3050.7757              3065.0940              3065.7915
 Red. masses --      1.0609                 1.0668                 1.0671
 Frc consts  --      5.8177                 5.9051                 5.9091
 IR Inten    --     26.8048                35.7145                14.4819

                     67                     68                     69
                      A                      A                      A
 Frequencies --   3075.4041              3083.7176              3087.5800
 Red. masses --      1.0296                 1.1024                 1.1012
 Frc consts  --      5.7374                 6.1766                 6.1852
 IR Inten    --     32.7993                 8.2218                22.6480

                     70                     71                     72
                      A                      A                      A
 Frequencies --   3099.1336              3103.6329              3112.5440
 Red. masses --      1.0862                 1.0886                 1.1016
 Frc consts  --      6.1466                 6.1784                 6.2877
 IR Inten    --     34.4325                15.4563                20.4953

                     73                     74                     75
                      A                      A                      A
 Frequencies --   3121.1614              3150.0641              3182.3428
 Red. masses --      1.0998                 1.1076                 1.1072
 Frc consts  --      6.3122                 6.4754                 6.6063
 IR Inten    --     26.4765                20.5551                16.6340

 - Thermochemistry -
 -------------------
 Temperature   298.150 Kelvin.  Pressure   1.00000 Atm.
 Atom     1 has atomic number  8 and mass  15.99491

 Molecular mass:   182.09429 amu.
 Principal axes and moments of inertia in atomic units:
                           1         2         3
     Eigenvalues --  1060.259263571.485453792.32707
           X            0.99975   0.02222   0.00076
           Y           -0.02221   0.99962  -0.01613
           Z           -0.00111   0.01611   0.99987
 This molecule is an asymmetric top.
 Rotational symmetry number  1.
 Warning -- assumption of classical behavior for rotation
           may cause significant error
 Rotational temperatures (Kelvin)      0.08169     0.02425     0.02284
 Rotational constants (GHZ):           1.70217     0.50532     0.47589
 Zero-point vibrational energy     606662.5 (Joules/Mol)
                                  144.99583 (Kcal/Mol)
 Warning -- explicit consideration of  17 degrees of freedom as
           vibrations may cause significant error
 Vibrational temperatures:     43.74    67.16   144.36   185.44   208.69
          (Kelvin)            216.18   318.26   397.92   435.81   459.17
                              502.91   586.16   653.61   683.00   782.39
                              877.72   880.29   931.73  1054.21  1109.35
                             1168.68  1194.22  1226.46  1253.43  1304.55
                             1321.60  1382.45  1396.30  1434.18  1514.87
                             1524.22  1536.26  1568.99  1573.58  1628.97
                             1675.08  1704.52  1734.92  1750.60  1766.99
                             1798.03  1806.08  1823.45  1867.68  1883.19
                             1932.14  1945.27  1948.73  1969.22  1984.09
                             2008.91  2015.29  2123.51  2146.93  2176.60
                             2187.98  2193.54  2200.79  2225.60  2608.30
                             2629.20  4355.63  4381.83  4389.39  4409.99
                             4410.99  4424.82  4436.78  4442.34  4458.96
                             4465.44  4478.26  4490.66  4532.24  4578.68

 Zero-point correction=                           0.231066 (Hartree/Particle)
 Thermal correction to Energy=                    0.243006
 Thermal correction to Enthalpy=                  0.243950
 Thermal correction to Gibbs Free Energy=         0.191915
 Sum of electronic and zero-point Energies=           -614.945450
 Sum of electronic and thermal Energies=              -614.933510
 Sum of electronic and thermal Enthalpies=            -614.932566
 Sum of electronic and thermal Free Energies=         -614.984601

                     E (Thermal)             CV                S
                      KCal/Mol        Cal/Mol-Kelvin    Cal/Mol-Kelvin
 Total                  152.488             45.194            109.517
 Electronic               0.000              0.000              0.000
 Translational            0.889              2.981             41.505
 Rotational               0.889              2.981             31.041
 Vibrational            150.711             39.232             36.971
 Vibration     1          0.594              1.984              5.803
 Vibration     2          0.595              1.979              4.953
 Vibration     3          0.604              1.949              3.448
 Vibration     4          0.611              1.924              2.963
 Vibration     5          0.616              1.908              2.736
 Vibration     6          0.618              1.902              2.669
 Vibration     7          0.648              1.809              1.949
 Vibration     8          0.678              1.717              1.555
 Vibration     9          0.694              1.668              1.401
 Vibration    10          0.705              1.637              1.314
 Vibration    11          0.727              1.576              1.168
 Vibration    12          0.772              1.454              0.936
 Vibration    13          0.813              1.351              0.783
 Vibration    14          0.831              1.306              0.724
 Vibration    15          0.899              1.153              0.557
 Vibration    16          0.969              1.011              0.433
 Vibration    17          0.971              1.007              0.430

 Normal termination of Gaussian 16 at Sat Feb 24 03:21:47 2024.
