 Gaussian 16, Revision A.03,
 Gaussian 16:  EM64M-G16RevA.03 25-Dec-2016

 ---------------------
 # freq b3lyp/6-31g(d)
 ---------------------

 ---------
 good luck
 ---------
 Symbolic Z-matrix:
 Charge =  0 Multiplicity = 1

                         Standard orientation:
 ---------------------------------------------------------------------
 Center     Atomic      Atomic             Coordinates (Angstroms)
 Number     Number       Type             X           Y           Z
 ---------------------------------------------------------------------
      1          8           0        3.676159    0.029567   -0.626618
      2          6           0        2.511583    0.067572   -0.283151
      3          6           0        1.881422    1.270668    0.425281
      4          6           0        0.411434    0.961318    0.762015
      5          6           0       -0.341575    0.704425   -0.580284
      6          6           0       -1.835848    0.595213   -0.310102
      7          8           0       -2.548651    1.555514   -0.107899
      8          8           0       -2.289418   -0.679561   -0.265400
      9          6           0       -3.690753   -0.822066    0.026328
     10          6           0        0.321624   -0.496460   -1.319863
     11          6           0        1.507915   -1.055714   -0.496605
     12          6           0        0.984698   -1.507763    0.890051
     13          6           0        0.366105   -0.297760    1.651896
     14          1           0        1.976389    2.151019   -0.224375
     15          1           0        2.462942    1.487845    1.330592
     16          1           0       -0.053040    1.811060    1.272953
     17          1           0       -0.245487    1.616467   -1.179191
     18          1           0       -3.923825   -0.395209    1.005160
     19          1           0       -3.883559   -1.895166    0.017526
     20          1           0       -4.291860   -0.315550   -0.732946
     21          1           0        0.668808   -0.178942   -2.309303
     22          1           0       -0.402576   -1.299699   -1.477558
     23          1           0        1.997013   -1.879026   -1.024861
     24          1           0        0.233270   -2.290007    0.734460
     25          1           0        1.799062   -1.959587    1.466859
     26          1           0       -0.663983   -0.516230    1.951307
     27          1           0        0.922504   -0.097732    2.575313
 ---------------------------------------------------------------------

 SCF Done:  E(RB3LYP) =  -615.175527128     A.U. after   14 cycles

 The electronic state is 1-A.
 Alpha  occ. eigenvalues --  -19.20144 -19.13856 -19.13401 -10.31761 -10.26923
 Alpha  occ. eigenvalues --  -10.24734 -10.21103 -10.20706 -10.19728 -10.19687
 Alpha  occ. eigenvalues --  -10.19492 -10.19446 -10.19270  -1.10744  -1.03343
 Alpha  occ. eigenvalues --   -1.01733  -0.86929  -0.77498  -0.76819  -0.73913
 Alpha  occ. eigenvalues --   -0.71761  -0.63756  -0.61852  -0.58848  -0.56552
 Alpha  occ. eigenvalues --   -0.52861  -0.50774  -0.49522  -0.47934  -0.47211
 Alpha  occ. eigenvalues --   -0.46861  -0.44980  -0.41841  -0.41483  -0.41363
 Alpha  occ. eigenvalues --   -0.40821  -0.39599  -0.39360  -0.38902  -0.38576
 Alpha  occ. eigenvalues --   -0.36492  -0.36109  -0.34426  -0.32668  -0.32049
 Alpha  occ. eigenvalues --   -0.30952  -0.30259  -0.27168  -0.23422
 Alpha virt. eigenvalues --   -0.01377   0.00398   0.06495   0.09108   0.11491
 Alpha virt. eigenvalues --    0.11846   0.12566   0.12817   0.14255   0.15064
 Alpha virt. eigenvalues --    0.15286   0.16280   0.16630   0.16839   0.17502

 Mulliken charges:
               1
     1  O   -0.455354
     2  C    0.456437
     3  C   -0.363707
     4  C   -0.116460
     5  C   -0.171766
     6  C    0.611914
     7  O   -0.484527
     8  O   -0.451690
     9  C   -0.220561
    10  C   -0.303124
    11  C   -0.173137
    12  C   -0.283585
    13  C   -0.282582
    14  H    0.172398
    15  H    0.172860
    16  H    0.148688
    17  H    0.163660
    18  H    0.172031
    19  H    0.165149
    20  H    0.174647
    21  H    0.154269
    22  H    0.173161
    23  H    0.143473
    24  H    0.152463
    25  H    0.152081
    26  H    0.149804
    27  H    0.143459
 Sum of Mulliken charges =  -0.00000

 Dipole moment (field-independent basis, Debye):
    X=             -2.5155    Y=             -1.6276    Z=              0.8906  Tot=              3.1257
 Quadrupole moment (field-independent basis, Debye-Ang):
   XX=            -88.7754   YY=            -77.4815   ZZ=            -73.8753
   XY=              8.0890   XZ=              3.8036   YZ=             -0.3031

  Exact polarizability: 121.982   2.281  99.114  -2.746   1.297  88.682
 Approx polarizability: 163.220  -1.601 152.111  -6.479   2.958 130.474

                      1                      2                      3
                      A                      A                      A
 Frequencies --     30.1266                35.2647               100.5056
 Red. masses --      4.5604                 4.7900                 4.7058
 Frc consts  --      0.0024                 0.0035                 0.0280
 IR Inten    --      3.9274                 0.4018                 2.2051

                      4                      5                      6
                      A                      A                      A
 Frequencies --    114.0974               137.2581               194.7726
 Red. masses --      2.5613                 1.2002                 2.3236
 Frc consts  --      0.0196                 0.0133                 0.0519
 IR Inten    --      1.9500                 0.0317                 0.1222

                      7                      8                      9
                      A                      A                      A
 Frequencies --    221.1144               255.3081               315.9697
 Red. masses --      3.6258                 3.6993                 3.2240
 Frc consts  --      0.1044                 0.1421                 0.1896
 IR Inten    --      5.1864                 5.3658                 6.8196

                     10                     11                     12
                      A                      A                      A
 Frequencies --    329.1189               360.7081               402.3427
 Red. masses --      2.2269                 2.8045                 4.3358
 Frc consts  --      0.1421                 0.2150                 0.4135
 IR Inten    --      2.0583                 2.8557                 4.6671

                     13                     14                     15
                      A                      A                      A
 Frequencies --    450.6837               501.9969               560.5872
 Red. masses --      5.2301                 5.1181                 3.9198
 Frc consts  --      0.6259                 0.7599                 0.7258
 IR Inten    --      9.0963                 0.7221                 8.5091

                     16                     17                     18
                      A                      A                      A
 Frequencies --    604.4794               611.2295               645.8019
 Red. masses --      3.0552                 3.6016                 3.9415
 Frc consts  --      0.6577                 0.7928                 0.9685
 IR Inten    --      0.9840                 0.9728                 1.8302

                     19                     20                     21
                      A                      A                      A
 Frequencies --    735.7703               762.5370               815.0251
 Red. masses --      4.3551                 4.2693                 3.9110
 Frc consts  --      1.3891                 1.4626                 1.5307
 IR Inten    --      2.9278                 5.9980                 5.4972

                     22                     23                     24
                      A                      A                      A
 Frequencies --    828.2732               844.9782               872.6930
 Red. masses --      1.3995                 3.2397                 2.4485
 Frc consts  --      0.5657                 1.3628                 1.0987
 IR Inten    --      2.7613                 6.1779                 2.5735

                     25                     26                     27
                      A                      A                      A
 Frequencies --    904.0225               913.1693               956.7734
 Red. masses --      1.8329                 2.8802                 2.7753
 Frc consts  --      0.8826                 1.4150                 1.4969
 IR Inten    --      4.4558                 2.3039                13.9793

                     28                     29                     30
                      A                      A                      A
 Frequencies --    961.8299               998.7611              1041.3946
 Red. masses --      2.4545                 2.7782                 3.0676
 Frc consts  --      1.3379                 1.6328                 1.9601
 IR Inten    --      0.8340                 4.3315                17.7509

                     31                     32                     33
                      A                      A                      A
 Frequencies --   1060.6267              1073.5934              1081.6134
 Red. masses --      2.5139                 3.1398                 2.6768
 Frc consts  --      1.6662                 2.1322                 1.8451
 IR Inten    --      0.7699                30.3017                30.4415

                     34                     35                     36
                      A                      A                      A
 Frequencies --   1091.8075              1140.6387              1173.6703
 Red. masses --      1.8761                 1.4570                 1.1384
 Frc consts  --      1.3177                 1.1169                 0.9239
 IR Inten    --     10.2395                 9.2435                 5.7001

                     37                     38                     39
                      A                      A                      A
 Frequencies --   1185.1793              1196.7181              1218.1618
 Red. masses --      1.2743                 1.2538                 1.4742
 Frc consts  --      1.0546                 1.0580                 1.2889
 IR Inten    --      1.3717                 4.0571                 5.2993

                     40                     41                     42
                      A                      A                      A
 Frequencies --   1230.3283              1252.4544              1266.6575
 Red. masses --      1.6338                 1.4911                 1.2155
 Frc consts  --      1.4571                 1.3781                 1.1490
 IR Inten    --    125.1203                 9.2431                 3.2052

                     43                     44                     45
                      A                      A                      A
 Frequencies --   1289.5940              1294.5425              1315.9362
 Red. masses --      1.6720                 3.0773                 1.4840
 Frc consts  --      1.6383                 3.0385                 1.5141
 IR Inten    --      1.0632               238.8211                 2.8662

                     46                     47                     48
                      A                      A                      A
 Frequencies --   1342.1694              1345.3219              1357.6561
 Red. masses --      1.5709                 1.3627                 1.2958
 Frc consts  --      1.6673                 1.4531                 1.4073
 IR Inten    --      0.7077                 4.3128                 1.8177

                     49                     50                     51
                      A                      A                      A
 Frequencies --   1373.7661              1378.4071              1398.5012
 Red. masses --      1.6053                 1.5053                 1.4545
 Frc consts  --      1.7850                 1.6852                 1.6760
 IR Inten    --      2.9747                 9.5894                 0.0143

                     52                     53                     54
                      A                      A                      A
 Frequencies --   1401.8027              1474.4437              1490.7735
 Red. masses --      1.4239                 1.0849                 1.1954
 Frc consts  --      1.6485                 1.3896                 1.5652
 IR Inten    --      1.2355                 9.4982                 5.5683

                     55                     56                     57
                      A                      A                      A
 Frequencies --   1512.2208              1516.0968              1523.6748
 Red. masses --      1.0484                 1.0781                 1.0514
 Frc consts  --      1.4125                 1.4600                 1.4381
 IR Inten    --      5.8936                 1.4797                 6.4933

                     58                     59                     60
                      A                      A                      A
 Frequencies --   1527.1017              1542.8424              1815.0626
 Red. masses --      1.0788                 1.0945                11.1580
 Frc consts  --      1.4822                 1.5351                21.6581
 IR Inten    --      8.9998                 5.6395               232.2550

                     61                     62                     63
                      A                      A                      A
 Frequencies --   1828.0346              3047.5160              3054.6600
 Red. masses --     11.8655                 1.0612                 1.0621
 Frc consts  --     23.3617                 5.8066                 5.8392
 IR Inten    --    202.0722                12.4893                19.8414

                     64                     65                     66
                      A                      A                      A
 Frequencies --   3063.9646              3065.4254              3077.3042
 Red. masses --      1.0645                 1.0747                 1.0606
 Frc consts  --      5.8880                 5.9500                 5.9178
 IR Inten    --     31.6921                11.3650                31.8059

                     67                     68                     69
                      A                      A                      A
 Frequencies --   3077.7141              3086.9756              3087.7018
 Red. masses --      1.0444                 1.0989                 1.0926
 Frc consts  --      5.8289                 6.1696                 6.1374
 IR Inten    --     23.8877                18.1718                18.7589

                     70                     71                     72
                      A                      A                      A
 Frequencies --   3091.3052              3105.0982              3110.0784
 Red. masses --      1.0981                 1.0872                 1.1044
 Frc consts  --      6.1829                 6.1758                 6.2936
 IR Inten    --     13.9717                21.9194                45.4504

                     73                     74                     75
                      A                      A                      A
 Frequencies --   3126.1073              3153.7820              3183.0568
 Red. masses --      1.0993                 1.1076                 1.1076
 Frc consts  --      6.3296                 6.4908                 6.6117
 IR Inten    --     11.1298                18.4642                14.9783

 - Thermochemistry -
 -------------------
 Temperature   298.150 Kelvin.  Pressure   1.00000 Atm.
 Atom     1 has atomic number  8 and mass  15.99491

 Molecular mass:   182.09429 amu.
 Principal axes and moments of inertia in atomic units:
                           1         2         3
     Eigenvalues --  1028.619863418.101383609.42426
           X            0.99987   0.01570   0.00417
           Y           -0.01570   0.99987   0.00214
           Z           -0.00413  -0.00220   0.99999
 This molecule is an asymmetric top.
 Rotational symmetry number  1.
 Warning -- assumption of classical behavior for rotation
           may cause significant error
 Rotational temperatures (Kelvin)      0.08420     0.02534     0.02400
 Rotational constants (GHZ):           1.75453     0.52800     0.50001
 Zero-point vibrational energy     607324.2 (Joules/Mol)
                                  145.15397 (Kcal/Mol)
 Warning -- explicit consideration of  17 degrees of freedom as
           vibrations may cause significant error
 Vibrational temperatures:     43.35    50.74   144.61   164.16   197.48
          (Kelvin)            280.23   318.13   367.33   454.61   473.53
                              518.98   578.88   648.43   722.26   806.56
                              869.71   879.42   929.16  1058.61  1097.12
                             1172.64  1191.70  1215.74  1255.61  1300.69
                             1313.85  1376.58  1383.86  1436.99  1498.33
                             1526.01  1544.66  1556.20  1570.87  1641.12
                             1688.65  1705.21  1721.81  1752.66  1770.17
                             1802.00  1822.44  1855.44  1862.56  1893.34
                             1931.08  1935.62  1953.36  1976.54  1983.22
                             2012.13  2016.88  2121.40  2144.89  2175.75
                             2181.33  2192.23  2197.16  2219.81  2611.47
                             2630.13  4384.70  4394.97  4408.36  4410.46
                             4427.55  4428.14  4441.47  4442.51  4447.70
                             4467.54  4474.71  4497.77  4537.59  4579.71

 Zero-point correction=                           0.231318 (Hartree/Particle)
 Thermal correction to Energy=                    0.243224
 Thermal correction to Enthalpy=                  0.244168
 Thermal correction to Gibbs Free Energy=         0.192028
 Sum of electronic and zero-point Energies=           -614.944210
 Sum of electronic and thermal Energies=              -614.932303
 Sum of electronic and thermal Enthalpies=            -614.931359
 Sum of electronic and thermal Free Energies=         -614.983499

                     E (Thermal)             CV                S
                      KCal/Mol        Cal/Mol-Kelvin    Cal/Mol-Kelvin
 Total                  152.625             45.097            109.738
 Electronic               0.000              0.000              0.000
 Translational            0.889              2.981             41.505
 Rotational               0.889              2.981             30.918
 Vibrational            150.848             39.136             37.315
 Vibration     1          0.594              1.984              5.821
 Vibration     2          0.594              1.982              5.509
 Vibration     3          0.604              1.949              3.444
 Vibration     4          0.607              1.938              3.198
 Vibration     5          0.614              1.916              2.842
 Vibration     6          0.635              1.847              2.182
 Vibration     7          0.648              1.809              1.950
 Vibration     8          0.666              1.754              1.694
 Vibration     9          0.703              1.643              1.331
 Vibration    10          0.712              1.617              1.264
 Vibration    11          0.735              1.553              1.119
 Vibration    12          0.768              1.465              0.954
 Vibration    13          0.809              1.359              0.794
 Vibration    14          0.857              1.246              0.653
 Vibration    15          0.916              1.117              0.523
 Vibration    16          0.963              1.022              0.442
 Vibration    17          0.970              1.008              0.431

 Normal termination of Gaussian 16 at Sat Feb 24 03:18:50 2024.
