 Gaussian 16, Revision A.03,
 Gaussian 16:  EM64M-G16RevA.03 25-Dec-2016

 ---------------------
 # freq b3lyp/6-31g(d)
 ---------------------

 ---------
 good luck
 ---------
 Symbolic Z-matrix:
 Charge =  0 Multiplicity = 1

                         Standard orientation:
 ---------------------------------------------------------------------
 Center     Atomic      Atomic             Coordinates (Angstroms)
 Number     Number       Type             X           Y           Z
 ---------------------------------------------------------------------
      1          8           0       -3.633754   -0.617968   -0.660418
      2          6           0       -2.496394   -0.398014   -0.294441
      3          6           0       -1.601882   -1.461051    0.352173
      4          6           0       -0.235101   -0.845184    0.702421
      5          6           0        0.409650   -0.337538   -0.624830
      6          6           0        1.814548    0.181929   -0.360146
      7          8           0        2.136439    1.346078   -0.241973
      8          8           0        2.685743   -0.843648   -0.225107
      9          6           0        4.038295   -0.469838    0.087743
     10          6           0       -0.509184    0.742235   -1.263446
     11          6           0       -1.788668    0.942638   -0.415304
     12          6           0       -1.376706    1.402108    1.005732
     13          6           0       -0.456190    0.335423    1.670637
     14          1           0       -2.108220   -1.845297    1.247394
     15          1           0       -1.505807   -2.308615   -0.339250
     16          1           0        0.417324   -1.597625    1.157961
     17          1           0        0.512679   -1.202972   -1.289017
     18          1           0        4.450995    0.168177   -0.698054
     19          1           0        4.592738   -1.406446    0.152758
     20          1           0        4.078585    0.068085    1.038725
     21          1           0       -0.774602    0.456944   -2.287129
     22          1           0        0.028499    1.693930   -1.316731
     23          1           0       -2.461770    1.663938   -0.887163
     24          1           0       -0.852676    2.360222    0.918383
     25          1           0       -2.270757    1.582176    1.612844
     26          1           0        0.503862    0.779960    1.951640
     27          1           0       -0.908493   -0.044420    2.594396
 ---------------------------------------------------------------------

 SCF Done:  E(RB3LYP) =  -615.178432867     A.U. after   14 cycles

 The electronic state is 1-A.
 Alpha  occ. eigenvalues --  -19.19927 -19.14301 -19.13264 -10.31824 -10.26789
 Alpha  occ. eigenvalues --  -10.24638 -10.21037 -10.20739 -10.19448 -10.19411
 Alpha  occ. eigenvalues --  -10.19355 -10.19192 -10.19053  -1.10751  -1.03205
 Alpha  occ. eigenvalues --   -1.01927  -0.86795  -0.77664  -0.76514  -0.73775
 Alpha  occ. eigenvalues --   -0.71803  -0.63321  -0.61724  -0.58615  -0.56228
 Alpha  occ. eigenvalues --   -0.52353  -0.51116  -0.49320  -0.48037  -0.47481
 Alpha  occ. eigenvalues --   -0.46812  -0.45006  -0.42116  -0.41412  -0.41366
 Alpha  occ. eigenvalues --   -0.40610  -0.39461  -0.38866  -0.38594  -0.38108
 Alpha  occ. eigenvalues --   -0.36481  -0.36353  -0.34042  -0.32432  -0.31926
 Alpha  occ. eigenvalues --   -0.30752  -0.30264  -0.27688  -0.23285
 Alpha virt. eigenvalues --   -0.01217   0.00314   0.06917   0.09609   0.11262
 Alpha virt. eigenvalues --    0.12058   0.12388   0.13008   0.14443   0.15224
 Alpha virt. eigenvalues --    0.15314   0.16457   0.16742   0.17000   0.17584

 Mulliken charges:
               1
     1  O   -0.456225
     2  C    0.456786
     3  C   -0.361796
     4  C   -0.115137
     5  C   -0.167960
     6  C    0.615198
     7  O   -0.484185
     8  O   -0.455292
     9  C   -0.219647
    10  C   -0.302455
    11  C   -0.173029
    12  C   -0.285642
    13  C   -0.284844
    14  H    0.171847
    15  H    0.170092
    16  H    0.140916
    17  H    0.156535
    18  H    0.173200
    19  H    0.166537
    20  H    0.169836
    21  H    0.152316
    22  H    0.180050
    23  H    0.143829
    24  H    0.159763
    25  H    0.150436
    26  H    0.157396
    27  H    0.141475
 Sum of Mulliken charges =  -0.00000

 Dipole moment (field-independent basis, Debye):
    X=              3.1202    Y=             -1.0045    Z=              1.1275  Tot=              3.4664
 Quadrupole moment (field-independent basis, Debye-Ang):
   XX=            -84.3125   YY=            -78.3725   ZZ=            -74.0098
   XY=             -6.9091   XZ=             -3.2389   YZ=             -0.6642

  Exact polarizability: 123.778  -0.706  97.849   3.512  -1.155  88.898
 Approx polarizability: 160.956   4.107 154.763   6.909   0.080 130.604

                      1                      2                      3
                      A                      A                      A
 Frequencies --     25.4333                43.7619               101.9180
 Red. masses --      4.1816                 4.9872                 4.0560
 Frc consts  --      0.0016                 0.0056                 0.0248
 IR Inten    --      1.5510                 2.6316                 1.4875

                      4                      5                      6
                      A                      A                      A
 Frequencies --    113.6839               135.5170               184.0173
 Red. masses --      2.5827                 1.2726                 2.5086
 Frc consts  --      0.0197                 0.0138                 0.0500
 IR Inten    --      2.2713                 0.0137                 0.6667

                      7                      8                      9
                      A                      A                      A
 Frequencies --    213.3712               275.4568               307.1339
 Red. masses --      3.3252                 3.1245                 4.7301
 Frc consts  --      0.0892                 0.1397                 0.2629
 IR Inten    --      5.9159                 6.1314                 3.8757

                     10                     11                     12
                      A                      A                      A
 Frequencies --    327.4486               362.5270               389.7421
 Red. masses --      2.0908                 2.9074                 3.6520
 Frc consts  --      0.1321                 0.2251                 0.3268
 IR Inten    --      1.5207                14.0753                 2.9882

                     13                     14                     15
                      A                      A                      A
 Frequencies --    448.9706               506.5615               545.2161
 Red. masses --      5.2120                 5.0217                 3.8565
 Frc consts  --      0.6190                 0.7592                 0.6754
 IR Inten    --      9.4637                 2.0333                 1.9952

                     16                     17                     18
                      A                      A                      A
 Frequencies --    607.4613               611.2232               667.2547
 Red. masses --      2.9247                 3.8344                 4.3168
 Frc consts  --      0.6359                 0.8440                 1.1324
 IR Inten    --      0.7324                 1.2116                 3.0351

                     19                     20                     21
                      A                      A                      A
 Frequencies --    736.6661               762.9598               819.6234
 Red. masses --      4.4519                 4.2624                 3.4833
 Frc consts  --      1.4234                 1.4619                 1.3787
 IR Inten    --      3.6713                 5.9850                 2.9606

                     22                     23                     24
                      A                      A                      A
 Frequencies --    828.9766               856.6403               873.9536
 Red. masses --      1.4016                 2.6877                 2.5770
 Frc consts  --      0.5675                 1.1621                 1.1597
 IR Inten    --      3.2521                 2.8827                 2.9495

                     25                     26                     27
                      A                      A                      A
 Frequencies --    902.5359               908.7478               961.4756
 Red. masses --      2.3007                 2.3172                 2.6831
 Frc consts  --      1.1042                 1.1275                 1.4614
 IR Inten    --      8.9332                 3.3219                 2.6908

                     28                     29                     30
                      A                      A                      A
 Frequencies --    984.2558               996.8589              1032.8927
 Red. masses --      4.0425                 2.2253                 3.3473
 Frc consts  --      2.3074                 1.3029                 2.1040
 IR Inten    --      7.8772                 4.5757                 8.6696

                     31                     32                     33
                      A                      A                      A
 Frequencies --   1068.4686              1069.4726              1086.2575
 Red. masses --      2.6067                 2.3548                 2.7701
 Frc consts  --      1.7534                 1.5869                 1.9258
 IR Inten    --      2.6454                 3.2294                13.9132

                     34                     35                     36
                      A                      A                      A
 Frequencies --   1092.1636              1141.6589              1173.2101
 Red. masses --      1.8675                 1.4438                 1.1167
 Frc consts  --      1.3124                 1.1087                 0.9056
 IR Inten    --     14.0520                15.1401                 3.3185

                     37                     38                     39
                      A                      A                      A
 Frequencies --   1185.0352              1197.7180              1211.1889
 Red. masses --      1.2746                 1.3730                 1.7160
 Frc consts  --      1.0546                 1.1605                 1.4832
 IR Inten    --      1.3679                34.6917               100.8874

                     40                     41                     42
                      A                      A                      A
 Frequencies --   1228.8578              1249.0770              1252.9573
 Red. masses --      1.8690                 1.4893                 1.5077
 Frc consts  --      1.6629                 1.3690                 1.3946
 IR Inten    --    168.8760               135.3251                10.7404

                     43                     44                     45
                      A                      A                      A
 Frequencies --   1267.9870              1290.6061              1315.4936
 Red. masses --      1.2100                 1.6915                 1.4844
 Frc consts  --      1.1463                 1.6600                 1.5135
 IR Inten    --      0.6388                 5.7675                 0.4937

                     46                     47                     48
                      A                      A                      A
 Frequencies --   1344.8003              1350.3568              1368.9439
 Red. masses --      1.5443                 1.3569                 1.4932
 Frc consts  --      1.6455                 1.4578                 1.6487
 IR Inten    --      2.7248                 4.3357                25.2193

                     49                     50                     51
                      A                      A                      A
 Frequencies --   1373.9532              1383.4082              1400.0067
 Red. masses --      1.5809                 1.5234                 1.3961
 Frc consts  --      1.7583                 1.7178                 1.6122
 IR Inten    --     14.3980                 8.8280                 1.2815

                     52                     53                     54
                      A                      A                      A
 Frequencies --   1410.2201              1475.0013              1492.6476
 Red. masses --      1.6124                 1.0852                 1.2148
 Frc consts  --      1.8893                 1.3910                 1.5947
 IR Inten    --     39.0254                 9.0756                 9.6202

                     55                     56                     57
                      A                      A                      A
 Frequencies --   1512.9835              1514.8565              1524.3391
 Red. masses --      1.0486                 1.0775                 1.0493
 Frc consts  --      1.4142                 1.4568                 1.4365
 IR Inten    --      6.4590                 0.3941                10.7090

                     58                     59                     60
                      A                      A                      A
 Frequencies --   1524.9904              1542.2753              1813.8124
 Red. masses --      1.0803                 1.0935                10.8363
 Frc consts  --      1.4802                 1.5325                21.0047
 IR Inten    --      6.5152                 6.3264               168.2857

                     61                     62                     63
                      A                      A                      A
 Frequencies --   1827.4254              3047.1879              3054.8466
 Red. masses --     11.8535                 1.0610                 1.0631
 Frc consts  --     23.3225                 5.8044                 5.8450
 IR Inten    --    218.5914                13.3685                17.2388

                     64                     65                     66
                      A                      A                      A
 Frequencies --   3062.8477              3064.8824              3072.5352
 Red. masses --      1.0755                 1.0636                 1.0708
 Frc consts  --      5.9447                 5.8864                 5.9560
 IR Inten    --      7.9219                34.0439                27.6900

                     67                     68                     69
                      A                      A                      A
 Frequencies --   3075.3985              3083.9548              3086.2095
 Red. masses --      1.0299                 1.0861                 1.1023
 Frc consts  --      5.7393                 6.0863                 6.1857
 IR Inten    --     34.0389                31.2248                13.2382

                     70                     71                     72
                      A                      A                      A
 Frequencies --   3092.3067              3105.8192              3111.6995
 Red. masses --      1.1022                 1.0869                 1.1041
 Frc consts  --      6.2101                 6.1771                 6.2990
 IR Inten    --      6.1327                24.4179                38.0444

                     73                     74                     75
                      A                      A                      A
 Frequencies --   3116.8006              3150.3280              3182.1023
 Red. masses --      1.1038                 1.1075                 1.1072
 Frc consts  --      6.3176                 6.4763                 6.6055
 IR Inten    --     11.0951                20.5509                16.8754

 - Thermochemistry -
 -------------------
 Temperature   298.150 Kelvin.  Pressure   1.00000 Atm.
 Atom     1 has atomic number  8 and mass  15.99491

 Molecular mass:   182.09429 amu.
 Principal axes and moments of inertia in atomic units:
                           1         2         3
     Eigenvalues --   989.480713596.885053740.14721
           X            0.99992  -0.01215  -0.00275
           Y            0.01210   0.99979  -0.01656
           Z            0.00295   0.01652   0.99986
 This molecule is an asymmetric top.
 Rotational symmetry number  1.
 Warning -- assumption of classical behavior for rotation
           may cause significant error
 Rotational temperatures (Kelvin)      0.08753     0.02408     0.02316
 Rotational constants (GHZ):           1.82393     0.50175     0.48253
 Zero-point vibrational energy     607280.5 (Joules/Mol)
                                  145.14353 (Kcal/Mol)
 Warning -- explicit consideration of  17 degrees of freedom as
           vibrations may cause significant error
 Vibrational temperatures:     36.59    62.96   146.64   163.57   194.98
          (Kelvin)            264.76   306.99   396.32   441.90   471.13
                              521.60   560.75   645.97   728.83   784.44
                              874.00   879.41   960.03  1059.90  1097.73
                             1179.26  1192.71  1232.51  1257.42  1298.55
                             1307.49  1383.35  1416.12  1434.26  1486.10
                             1537.29  1538.73  1562.88  1571.38  1642.59
                             1687.99  1705.00  1723.25  1742.63  1768.05
                             1797.14  1802.73  1824.35  1856.89  1892.70
                             1934.87  1942.86  1969.60  1976.81  1990.42
                             2014.30  2028.99  2122.20  2147.59  2176.85
                             2179.54  2193.18  2194.12  2218.99  2609.67
                             2629.26  4384.22  4395.24  4406.75  4409.68
                             4420.69  4424.81  4437.12  4440.37  4449.14
                             4468.58  4477.04  4484.38  4532.62  4578.34

 Zero-point correction=                           0.231301 (Hartree/Particle)
 Thermal correction to Energy=                    0.243215
 Thermal correction to Enthalpy=                  0.244160
 Thermal correction to Gibbs Free Energy=         0.191988
 Sum of electronic and zero-point Energies=           -614.947132
 Sum of electronic and thermal Energies=              -614.935218
 Sum of electronic and thermal Enthalpies=            -614.934273
 Sum of electronic and thermal Free Energies=         -614.986445

                     E (Thermal)             CV                S
                      KCal/Mol        Cal/Mol-Kelvin    Cal/Mol-Kelvin
 Total                  152.620             45.071            109.804
 Electronic               0.000              0.000              0.000
 Translational            0.889              2.981             41.505
 Rotational               0.889              2.981             30.966
 Vibrational            150.842             39.110             37.333
 Vibration     1          0.593              1.985              6.157
 Vibration     2          0.595              1.980              5.081
 Vibration     3          0.604              1.948              3.417
 Vibration     4          0.607              1.938              3.205
 Vibration     5          0.613              1.918              2.866
 Vibration     6          0.631              1.862              2.287
 Vibration     7          0.644              1.821              2.015
 Vibration     8          0.677              1.719              1.562
 Vibration     9          0.697              1.660              1.378
 Vibration    10          0.711              1.621              1.273
 Vibration    11          0.736              1.549              1.111
 Vibration    12          0.758              1.492              1.001
 Vibration    13          0.808              1.363              0.799
 Vibration    14          0.862              1.235              0.642
 Vibration    15          0.900              1.150              0.554
 Vibration    16          0.966              1.016              0.437
 Vibration    17          0.970              1.008              0.431

 Normal termination of Gaussian 16 at Sat Feb 24 03:15:50 2024.
