 Gaussian 16, Revision A.03,
 Gaussian 16:  EM64M-G16RevA.03 25-Dec-2016

 ---------------------
 # freq b3lyp/6-31g(d)
 ---------------------

 ---------
 good luck
 ---------
 Symbolic Z-matrix:
 Charge =  0 Multiplicity = 1

                         Standard orientation:
 ---------------------------------------------------------------------
 Center     Atomic      Atomic             Coordinates (Angstroms)
 Number     Number       Type             X           Y           Z
 ---------------------------------------------------------------------
      1          8           0        2.580218    2.202554   -0.206592
      2          6           0        2.517029    0.987011   -0.170800
      3          6           0        1.934108    0.171059   -1.321600
      4          6           0        0.959581   -0.950644   -0.883053
      5          6           0       -0.441404   -0.465946   -0.518498
      6          6           0       -0.751100    0.862811   -0.201606
      7          6           0       -2.053308    1.234354    0.143579
      8          6           0       -3.094007    0.301708    0.180078
      9          6           0       -4.506787    0.714838    0.521233
     10          6           0       -2.785051   -1.027635   -0.140882
     11          6           0       -1.488871   -1.400257   -0.484864
     12          6           0        1.602676   -1.778437    0.261447
     13          6           0        2.028139   -0.903845    1.446818
     14          6           0        3.035674    0.178481    1.009679
     15          1           0        2.788214   -0.309778   -1.822556
     16          1           0        1.477966    0.856045   -2.041903
     17          1           0        0.842807   -1.626245   -1.741296
     18          1           0        0.016888    1.629173   -0.224739
     19          1           0       -2.258507    2.274700    0.387077
     20          1           0       -5.056967   -0.098669    1.006522
     21          1           0       -5.069805    0.994561   -0.379516
     22          1           0       -4.520413    1.579982    1.192724
     23          1           0       -3.571944   -1.779020   -0.125835
     24          1           0       -1.284524   -2.439678   -0.735897
     25          1           0        2.483252   -2.303689   -0.137164
     26          1           0        0.899754   -2.550196    0.595229
     27          1           0        2.472720   -1.522898    2.235098
     28          1           0        1.143940   -0.423428    1.884304
     29          1           0        3.285470    0.868868    1.820717
     30          1           0        3.969327   -0.311154    0.690787
 ---------------------------------------------------------------------

 SCF Done:  E(RB3LYP) =  -580.256680922     A.U. after   14 cycles

 The electronic state is 1-A.
 Alpha  occ. eigenvalues --  -19.13347 -10.27043 -10.20426 -10.19322 -10.19215
 Alpha  occ. eigenvalues --  -10.19155 -10.19142 -10.19096 -10.19047 -10.18536
 Alpha  occ. eigenvalues --  -10.18439 -10.18300 -10.18248 -10.18244  -1.03256
 Alpha  occ. eigenvalues --   -0.85885  -0.83052  -0.77860  -0.74697  -0.73936
 Alpha  occ. eigenvalues --   -0.72493  -0.68162  -0.62915  -0.60151  -0.59535
 Alpha  occ. eigenvalues --   -0.56519  -0.52947  -0.49203  -0.47422  -0.46294
 Alpha  occ. eigenvalues --   -0.45307  -0.44917  -0.44123  -0.42747  -0.41751
 Alpha  occ. eigenvalues --   -0.41426  -0.41178  -0.40263  -0.39282  -0.37848
 Alpha  occ. eigenvalues --   -0.37083  -0.35862  -0.34875  -0.34488  -0.33837
 Alpha  occ. eigenvalues --   -0.32639  -0.32039  -0.31661  -0.24562  -0.23718
 Alpha  occ. eigenvalues --   -0.23040
 Alpha virt. eigenvalues --   -0.01762   0.00333   0.00507   0.08392   0.10386
 Alpha virt. eigenvalues --    0.11367   0.11950   0.12948   0.13669   0.14045
 Alpha virt. eigenvalues --    0.15234   0.15823   0.16513   0.16682   0.16795

 Mulliken charges:
               1
     1  O   -0.461391
     2  C    0.468867
     3  C   -0.362857
     4  C   -0.180241
     5  C    0.165854
     6  C   -0.207333
     7  C   -0.186858
     8  C    0.179307
     9  C   -0.529894
    10  C   -0.178912
    11  C   -0.182077
    12  C   -0.263829
    13  C   -0.276133
    14  C   -0.342164
    15  H    0.157421
    16  H    0.169846
    17  H    0.139266
    18  H    0.154944
    19  H    0.124888
    20  H    0.155484
    21  H    0.165603
    22  H    0.157560
    23  H    0.120192
    24  H    0.120312
    25  H    0.129308
    26  H    0.145028
    27  H    0.142562
    28  H    0.158609
    29  H    0.163869
    30  H    0.152768
 Sum of Mulliken charges =  -0.00000

 Dipole moment (field-independent basis, Debye):
    X=             -0.5431    Y=             -2.8770    Z=              0.1885  Tot=              2.9339
 Quadrupole moment (field-independent basis, Debye-Ang):
   XX=            -77.9757   YY=            -87.4439   ZZ=            -83.5618
   XY=             -8.3307   XZ=             -0.7348   YZ=              1.7682

  Exact polarizability: 168.216  -3.684 133.945  -6.735   6.224  91.051
 Approx polarizability: 225.126  -1.493 230.258 -15.940  15.208 134.004

                      1                      2                      3
                      A                      A                      A
 Frequencies --     27.3856                40.6765                65.9416
 Red. masses --      1.0571                 3.4897                 3.5837
 Frc consts  --      0.0005                 0.0034                 0.0092
 IR Inten    --      0.2835                 0.5521                 1.5808

                      4                      5                      6
                      A                      A                      A
 Frequencies --     87.5473               114.7896               184.4786
 Red. masses --      7.3045                 3.1659                 3.5138
 Frc consts  --      0.0330                 0.0246                 0.0705
 IR Inten    --      3.7736                 0.6520                 0.7885

                      7                      8                      9
                      A                      A                      A
 Frequencies --    202.9877               289.2400               297.9482
 Red. masses --      2.9555                 3.1857                 2.5041
 Frc consts  --      0.0718                 0.1570                 0.1310
 IR Inten    --      1.1609                 0.7366                 0.2594

                     10                     11                     12
                      A                      A                      A
 Frequencies --    349.3363               375.9357               418.8494
 Red. masses --      2.7907                 2.8842                 3.0570
 Frc consts  --      0.2007                 0.2402                 0.3160
 IR Inten    --      0.0486                 0.7834                 0.0068

                     13                     14                     15
                      A                      A                      A
 Frequencies --    426.8840               446.4982               482.6894
 Red. masses --      2.6274                 3.9838                 1.9705
 Frc consts  --      0.2821                 0.4679                 0.2705
 IR Inten    --      2.7246                 1.9485                 0.6135

                     16                     17                     18
                      A                      A                      A
 Frequencies --    494.2578               535.0983               592.7797
 Red. masses --      3.2806                 3.3377                 3.8385
 Frc consts  --      0.4722                 0.5631                 0.7947
 IR Inten    --     14.8913                 3.9904                 3.3758

                     19                     20                     21
                      A                      A                      A
 Frequencies --    654.1685               684.6208               706.9353
 Red. masses --      6.2503                 3.1754                 3.4695
 Frc consts  --      1.5759                 0.8769                 1.0216
 IR Inten    --      0.5095                 0.9839                 0.6967

                     22                     23                     24
                      A                      A                      A
 Frequencies --    743.2821               759.5812               816.5006
 Red. masses --      3.1960                 2.1638                 3.6457
 Frc consts  --      1.0403                 0.7356                 1.4320
 IR Inten    --      2.1254                 4.2535                 1.1521

                     25                     26                     27
                      A                      A                      A
 Frequencies --    828.5445               856.2159               862.6250
 Red. masses --      1.5721                 2.1958                 1.3537
 Frc consts  --      0.6359                 0.9484                 0.5935
 IR Inten    --     20.1564                 2.7683                 0.7300

                     28                     29                     30
                      A                      A                      A
 Frequencies --    872.7119               909.3173               926.4980
 Red. masses --      1.8820                 1.6795                 2.3745
 Frc consts  --      0.8445                 0.8182                 1.2009
 IR Inten    --      1.9701                 2.8897                 7.2518

                     31                     32                     33
                      A                      A                      A
 Frequencies --    963.4962               978.0730              1003.5504
 Red. masses --      1.3091                 1.3164                 2.4968
 Frc consts  --      0.7160                 0.7420                 1.4815
 IR Inten    --      0.4848                 2.1322                 1.7401

                     34                     35                     36
                      A                      A                      A
 Frequencies --   1017.3347              1035.1496              1039.8674
 Red. masses --      1.4834                 1.8251                 2.9047
 Frc consts  --      0.9045                 1.1522                 1.8506
 IR Inten    --      0.1203                 5.8085                 2.2486

                     37                     38                     39
                      A                      A                      A
 Frequencies --   1075.7679              1081.0220              1094.1690
 Red. masses --      1.5221                 1.8299                 1.7396
 Frc consts  --      1.0378                 1.2599                 1.2270
 IR Inten    --     11.3266                 3.0025                 7.6320

                     40                     41                     42
                      A                      A                      A
 Frequencies --   1126.9756              1158.3712              1171.5091
 Red. masses --      1.4851                 1.3703                 1.6528
 Frc consts  --      1.1113                 1.0833                 1.3365
 IR Inten    --     17.0071                 8.1047                 4.1150

                     43                     44                     45
                      A                      A                      A
 Frequencies --   1201.0338              1229.2452              1244.3286
 Red. masses --      2.1696                 1.1772                 1.9337
 Frc consts  --      1.8439                 1.0480                 1.7641
 IR Inten    --      1.4954                 4.6236                 5.5798

                     46                     47                     48
                      A                      A                      A
 Frequencies --   1249.3779              1252.5551              1281.6856
 Red. masses --      1.6959                 1.7336                 1.3426
 Frc consts  --      1.5597                 1.6025                 1.2995
 IR Inten    --      8.1870                25.6547                 2.6749

                     49                     50                     51
                      A                      A                      A
 Frequencies --   1316.1330              1342.6009              1349.6612
 Red. masses --      1.4561                 2.9179                 2.0801
 Frc consts  --      1.4860                 3.0990                 2.2324
 IR Inten    --      2.2126                 4.0084                11.6604

                     52                     53                     54
                      A                      A                      A
 Frequencies --   1358.7375              1364.7622              1385.6767
 Red. masses --      1.4816                 1.3185                 1.4020
 Frc consts  --      1.6116                 1.4469                 1.5861
 IR Inten    --      3.4459                 1.9752                10.8744

                     55                     56                     57
                      A                      A                      A
 Frequencies --   1395.5649              1410.1654              1442.9957
 Red. masses --      1.4951                 1.5218                 1.2461
 Frc consts  --      1.7157                 1.7830                 1.5287
 IR Inten    --      3.3059                 6.1579                 0.2111

                     58                     59                     60
                      A                      A                      A
 Frequencies --   1461.2415              1489.6244              1496.6144
 Red. masses --      2.3040                 1.0968                 1.0883
 Frc consts  --      2.8985                 1.4339                 1.4362
 IR Inten    --      3.3349                 7.6958                11.4233

                     61                     62                     63
                      A                      A                      A
 Frequencies --   1518.0556              1518.1256              1522.4901
 Red. masses --      1.0689                 1.0637                 1.1033
 Frc consts  --      1.4513                 1.4443                 1.5069
 IR Inten    --      4.1091                 8.7129                 8.9969

                     64                     65                     66
                      A                      A                      A
 Frequencies --   1529.0281              1567.3159              1628.4688
 Red. masses --      1.0938                 2.4037                 5.2811
 Frc consts  --      1.5066                 3.4789                 8.2515
 IR Inten    --      5.6560                23.2394                 1.8449

                     67                     68                     69
                      A                      A                      A
 Frequencies --   1675.5902              1809.0177              3016.4926
 Red. masses --      5.6749                10.9898                 1.0701
 Frc consts  --      9.3873                21.1898                 5.7367
 IR Inten    --      0.6168               155.4500                 0.9588

                     70                     71                     72
                      A                      A                      A
 Frequencies --   3021.1744              3024.2828              3037.8339
 Red. masses --      1.0742                 1.0694                 1.0781
 Frc consts  --      5.7765                 5.7630                 5.8621
 IR Inten    --     27.5599                11.7239                65.2074

                     73                     74                     75
                      A                      A                      A
 Frequencies --   3039.3452              3052.2746              3087.8761
 Red. masses --      1.0412                 1.0604                 1.0948
 Frc consts  --      5.6670                 5.8207                 6.1503
 IR Inten    --     30.8753                24.4698                29.6162

                     76                     77                     78
                      A                      A                      A
 Frequencies --   3092.0336              3095.9806              3117.3080
 Red. masses --      1.1039                 1.0953                 1.0939
 Frc consts  --      6.2180                 6.1853                 6.2628
 IR Inten    --     49.7359                21.7524                18.9552

                     79                     80                     81
                      A                      A                      A
 Frequencies --   3120.3111              3122.9305              3163.2674
 Red. masses --      1.0937                 1.1027                 1.0865
 Frc consts  --      6.2741                 6.3361                 6.4053
 IR Inten    --     12.4237                16.7510                14.4781

                     82                     83                     84
                      A                      A                      A
 Frequencies --   3177.2378              3183.2005              3218.2155
 Red. masses --      1.0893                 1.0938                 1.0916
 Frc consts  --      6.4788                 6.5302                 6.6610
 IR Inten    --     21.1296                22.7804                 3.0185

 - Thermochemistry -
 -------------------
 Temperature   298.150 Kelvin.  Pressure   1.00000 Atm.
 Atom     1 has atomic number  8 and mass  15.99491

 Molecular mass:   188.12012 amu.
 Principal axes and moments of inertia in atomic units:
                           1         2         3
     Eigenvalues --  1312.851924351.215254900.41802
           X            0.99976  -0.02195  -0.00121
           Y            0.02196   0.99971   0.00967
           Z            0.00100  -0.00969   0.99995
 This molecule is an asymmetric top.
 Rotational symmetry number  1.
 Warning -- assumption of classical behavior for rotation
           may cause significant error
 Rotational temperatures (Kelvin)      0.06597     0.01991     0.01767
 Rotational constants (GHZ):           1.37467     0.41477     0.36828
 Zero-point vibrational energy     684320.6 (Joules/Mol)
                                  163.55655 (Kcal/Mol)
 Warning -- explicit consideration of  18 degrees of freedom as
           vibrations may cause significant error
 Vibrational temperatures:     39.40    58.52    94.88   125.96   165.16
          (Kelvin)            265.42   292.05   416.15   428.68   502.62
                              540.89   602.63   614.19   642.41   694.48
                              711.13   769.89   852.88   941.20   985.02
                             1017.12  1069.42  1092.87  1174.76  1192.09
                             1231.90  1241.13  1255.64  1308.30  1333.02
                             1386.26  1407.23  1443.89  1463.72  1489.35
                             1496.14  1547.79  1555.35  1574.27  1621.47
                             1666.64  1685.54  1728.02  1768.61  1790.31
                             1797.58  1802.15  1844.06  1893.62  1931.70
                             1941.86  1954.92  1963.59  1993.68  2007.91
                             2028.91  2076.15  2102.40  2143.24  2153.29
                             2184.14  2184.24  2190.52  2199.93  2255.02
                             2343.00  2410.80  2602.77  4340.06  4346.80
                             4351.27  4370.77  4372.94  4391.54  4442.76
                             4448.75  4454.43  4485.11  4489.43  4493.20
                             4551.24  4571.34  4579.92  4630.29

 Zero-point correction=                           0.260644 (Hartree/Particle)
 Thermal correction to Energy=                    0.273388
 Thermal correction to Enthalpy=                  0.274332
 Thermal correction to Gibbs Free Energy=         0.220058
 Sum of electronic and zero-point Energies=           -579.996037
 Sum of electronic and thermal Energies=              -579.983293
 Sum of electronic and thermal Enthalpies=            -579.982348
 Sum of electronic and thermal Free Energies=         -580.036623

                     E (Thermal)             CV                S
                      KCal/Mol        Cal/Mol-Kelvin    Cal/Mol-Kelvin
 Total                  171.554             49.474            114.230
 Electronic               0.000              0.000              0.000
 Translational            0.889              2.981             41.602
 Rotational               0.889              2.981             31.704
 Vibrational            169.776             43.513             40.924
 Vibration     1          0.593              1.984              6.010
 Vibration     2          0.594              1.981              5.226
 Vibration     3          0.597              1.971              4.271
 Vibration     4          0.601              1.958              3.714
 Vibration     5          0.608              1.937              3.186
 Vibration     6          0.631              1.861              2.283
 Vibration     7          0.639              1.836              2.106
 Vibration     8          0.686              1.694              1.478
 Vibration     9          0.691              1.678              1.428
 Vibration    10          0.727              1.577              1.169
 Vibration    11          0.747              1.521              1.055
 Vibration    12          0.782              1.429              0.896
 Vibration    13          0.789              1.412              0.869
 Vibration    14          0.806              1.369              0.806
 Vibration    15          0.839              1.288              0.703
 Vibration    16          0.850              1.263              0.673
 Vibration    17          0.890              1.172              0.576
 Vibration    18          0.950              1.047              0.462

 Normal termination of Gaussian 16 at Sat Feb 24 02:27:11 2024.
