 Gaussian 16, Revision A.03,
 Gaussian 16:  EM64M-G16RevA.03 25-Dec-2016

 ---------------------
 # freq b3lyp/6-31g(d)
 ---------------------

 ---------
 good luck
 ---------
 Symbolic Z-matrix:
 Charge =  0 Multiplicity = 1

                         Standard orientation:
 ---------------------------------------------------------------------
 Center     Atomic      Atomic             Coordinates (Angstroms)
 Number     Number       Type             X           Y           Z
 ---------------------------------------------------------------------
      1          8           0        3.737402   -1.866779   -0.071175
      2          6           0        3.063111   -0.876829   -0.283711
      3          6           0        1.550569   -0.944043   -0.458484
      4          6           0        0.810273    0.080385    0.443929
      5          6           0       -0.695620    0.027973    0.243794
      6          6           0       -1.288652    0.359593   -0.982939
      7          6           0       -2.671424    0.315065   -1.149590
      8          6           0       -3.517772   -0.067140   -0.100088
      9          6           0       -5.014222   -0.146116   -0.293427
     10          6           0       -2.926424   -0.396014    1.124926
     11          6           0       -1.542164   -0.350207    1.292407
     12          6           0        1.396276    1.494656    0.239949
     13          6           0        2.908290    1.525302    0.503711
     14          6           0        3.665121    0.518454   -0.386498
     15          1           0        1.321678   -0.720676   -1.511488
     16          1           0        1.218414   -1.966442   -0.257455
     17          1           0        1.010723   -0.205568    1.486600
     18          1           0       -0.667100    0.662534   -1.822646
     19          1           0       -3.101938    0.583035   -2.112264
     20          1           0       -5.362240    0.582557   -1.033519
     21          1           0       -5.318935   -1.139834   -0.648624
     22          1           0       -5.550058    0.041056    0.643309
     23          1           0       -3.556215   -0.691413    1.961496
     24          1           0       -1.112387   -0.610199    2.257621
     25          1           0        0.882541    2.200417    0.903616
     26          1           0        1.195187    1.830399   -0.787485
     27          1           0        3.098397    1.285666    1.559127
     28          1           0        3.303679    2.534402    0.337543
     29          1           0        3.587129    0.840932   -1.436547
     30          1           0        4.727738    0.460890   -0.133748
 ---------------------------------------------------------------------

 SCF Done:  E(RB3LYP) =  -580.258774497     A.U. after   14 cycles

 The electronic state is 1-A.
 Alpha  occ. eigenvalues --  -19.13242 -10.26840 -10.20400 -10.19637 -10.19510
 Alpha  occ. eigenvalues --  -10.19385 -10.19091 -10.19081 -10.18987 -10.18867
 Alpha  occ. eigenvalues --  -10.18769 -10.18722 -10.18635 -10.18493  -1.03112
 Alpha  occ. eigenvalues --   -0.86118  -0.83238  -0.78262  -0.74624  -0.74226
 Alpha  occ. eigenvalues --   -0.72597  -0.68315  -0.62583  -0.61011  -0.59559
 Alpha  occ. eigenvalues --   -0.56651  -0.53120  -0.49304  -0.47828  -0.46674
 Alpha  occ. eigenvalues --   -0.45491  -0.44719  -0.43599  -0.43209  -0.42107
 Alpha  occ. eigenvalues --   -0.41760  -0.41605  -0.39963  -0.39134  -0.38587
 Alpha  occ. eigenvalues --   -0.36157  -0.35810  -0.35325  -0.34956  -0.33968
 Alpha  occ. eigenvalues --   -0.32807  -0.32405  -0.31881  -0.24892  -0.24052
 Alpha  occ. eigenvalues --   -0.22919
 Alpha virt. eigenvalues --   -0.01578  -0.00039   0.00413   0.08862   0.09553
 Alpha virt. eigenvalues --    0.09807   0.11539   0.13253   0.13516   0.13826
 Alpha virt. eigenvalues --    0.14998   0.15471   0.16043   0.16573   0.16989

 Mulliken charges:
               1
     1  O   -0.445905
     2  C    0.450397
     3  C   -0.343705
     4  C   -0.193551
     5  C    0.187217
     6  C   -0.183536
     7  C   -0.181459
     8  C    0.177966
     9  C   -0.529829
    10  C   -0.178298
    11  C   -0.193821
    12  C   -0.262001
    13  C   -0.274722
    14  C   -0.342320
    15  H    0.153092
    16  H    0.168008
    17  H    0.135441
    18  H    0.121567
    19  H    0.121625
    20  H    0.156618
    21  H    0.166445
    22  H    0.157031
    23  H    0.122290
    24  H    0.125168
    25  H    0.146715
    26  H    0.133749
    27  H    0.145592
    28  H    0.144563
    29  H    0.152325
    30  H    0.163337
 Sum of Mulliken charges =  -0.00000

 Dipole moment (field-independent basis, Debye):
    X=             -2.0798    Y=              2.4513    Z=             -0.3615  Tot=              3.2350
 Quadrupole moment (field-independent basis, Debye-Ang):
   XX=            -87.1581   YY=            -89.9595   ZZ=            -78.7328
   XY=             11.4088   XZ=             -0.6970   YZ=             -1.4688

  Exact polarizability: 186.971   3.049  97.715   2.544 -10.238 117.126
 Approx polarizability: 239.506  -1.845 148.329   5.039 -26.733 202.680

                      1                      2                      3
                      A                      A                      A
 Frequencies --     30.1193                35.2481                63.7871
 Red. masses --      1.1300                 2.8725                 4.5539
 Frc consts  --      0.0006                 0.0021                 0.0109
 IR Inten    --      0.6603                 0.2466                 0.7178

                      4                      5                      6
                      A                      A                      A
 Frequencies --     75.9873               100.0610               175.2898
 Red. masses --      3.4060                 3.3416                 3.8627
 Frc consts  --      0.0116                 0.0197                 0.0699
 IR Inten    --      0.8234                 1.9372                 1.8533

                      7                      8                      9
                      A                      A                      A
 Frequencies --    196.1688               251.1159               272.2586
 Red. masses --      3.0029                 3.9480                 2.2499
 Frc consts  --      0.0681                 0.1467                 0.0983
 IR Inten    --      0.4994                 0.3086                 0.3498

                     10                     11                     12
                      A                      A                      A
 Frequencies --    353.3304               361.2404               405.0116
 Red. masses --      2.6396                 4.0136                 2.8176
 Frc consts  --      0.1942                 0.3086                 0.2723
 IR Inten    --      0.2708                 0.4212                 1.3045

                     13                     14                     15
                      A                      A                      A
 Frequencies --    419.2250               449.3460               472.6886
 Red. masses --      3.0182                 3.4457                 1.7853
 Frc consts  --      0.3125                 0.4099                 0.2350
 IR Inten    --      0.0079                 2.4639                 1.1584

                     16                     17                     18
                      A                      A                      A
 Frequencies --    500.4391               551.3003               557.3235
 Red. masses --      3.1942                 2.8394                 3.8279
 Frc consts  --      0.4713                 0.5084                 0.7005
 IR Inten    --     13.8724                 8.1495                 1.3170

                     19                     20                     21
                      A                      A                      A
 Frequencies --    641.5757               660.2376               734.3140
 Red. masses --      4.0176                 6.0012                 3.3662
 Frc consts  --      0.9743                 1.5413                 1.0694
 IR Inten    --      1.9996                 0.5850                 1.6319

                     22                     23                     24
                      A                      A                      A
 Frequencies --    760.1416               771.9716               819.3050
 Red. masses --      1.9347                 3.9058                 2.2576
 Frc consts  --      0.6587                 1.3714                 0.8929
 IR Inten    --      3.3320                 0.9190                 8.8873

                     25                     26                     27
                      A                      A                      A
 Frequencies --    839.6998               854.9788               870.3602
 Red. masses --      2.1402                 1.2499                 1.6760
 Frc consts  --      0.8891                 0.5383                 0.7481
 IR Inten    --     16.1262                 0.0621                 0.2382

                     28                     29                     30
                      A                      A                      A
 Frequencies --    880.7267               897.7794               922.1162
 Red. masses --      2.0830                 1.8456                 2.5441
 Frc consts  --      0.9520                 0.8764                 1.2745
 IR Inten    --      0.7069                 6.1130                 3.5549

                     31                     32                     33
                      A                      A                      A
 Frequencies --    960.3915               962.4097               990.8954
 Red. masses --      1.3423                 1.2979                 2.5317
 Frc consts  --      0.7294                 0.7083                 1.4646
 IR Inten    --      0.0139                 0.3181                 7.9455

                     34                     35                     36
                      A                      A                      A
 Frequencies --   1019.2381              1040.2251              1046.2667
 Red. masses --      1.4232                 2.8508                 1.8959
 Frc consts  --      0.8711                 1.8175                 1.2228
 IR Inten    --      0.1219                 3.7936                 4.8988

                     37                     38                     39
                      A                      A                      A
 Frequencies --   1075.4153              1075.7726              1089.9395
 Red. masses --      1.1900                 1.5188                 2.8477
 Frc consts  --      0.8108                 1.0356                 1.9932
 IR Inten    --      9.9126                12.5780                 3.2709

                     40                     41                     42
                      A                      A                      A
 Frequencies --   1122.6401              1153.1436              1211.2798
 Red. masses --      2.1147                 1.3761                 1.6867
 Frc consts  --      1.5703                 1.0781                 1.4581
 IR Inten    --      1.7913                 5.4612                18.2377

                     43                     44                     45
                      A                      A                      A
 Frequencies --   1220.0769              1228.0055              1241.5934
 Red. masses --      1.3488                 1.8438                 2.6074
 Frc consts  --      1.1829                 1.6382                 2.3682
 IR Inten    --      0.9022                 0.8601                 1.2898

                     46                     47                     48
                      A                      A                      A
 Frequencies --   1248.4453              1255.7687              1284.9351
 Red. masses --      1.7504                 1.5608                 1.6228
 Frc consts  --      1.6074                 1.4502                 1.5786
 IR Inten    --     46.1933                 0.5232                11.1850

                     49                     50                     51
                      A                      A                      A
 Frequencies --   1305.3207              1330.7746              1351.8346
 Red. masses --      1.2624                 1.8346                 2.1179
 Frc consts  --      1.2673                 1.9143                 2.2804
 IR Inten    --      1.0988                11.0338                 0.2973

                     52                     53                     54
                      A                      A                      A
 Frequencies --   1355.0943              1363.8583              1379.3339
 Red. masses --      1.4043                 1.3389                 1.3975
 Frc consts  --      1.5194                 1.4673                 1.5665
 IR Inten    --      6.6435                 5.4753                 7.5666

                     55                     56                     57
                      A                      A                      A
 Frequencies --   1392.0557              1409.9046              1443.1716
 Red. masses --      1.4745                 1.6385                 1.2449
 Frc consts  --      1.6835                 1.9190                 1.5276
 IR Inten    --     14.2213                 5.1229                 0.1543

                     58                     59                     60
                      A                      A                      A
 Frequencies --   1465.1094              1490.7928              1498.2257
 Red. masses --      2.1911                 1.0979                 1.0884
 Frc consts  --      2.7711                 1.4377                 1.4394
 IR Inten    --      2.2436                 5.2533                 6.0973

                     61                     62                     63
                      A                      A                      A
 Frequencies --   1518.0352              1518.1377              1523.0432
 Red. masses --      1.0787                 1.0549                 1.1046
 Frc consts  --      1.4646                 1.4325                 1.5097
 IR Inten    --      6.8051                 5.6454                 7.9146

                     64                     65                     66
                      A                      A                      A
 Frequencies --   1528.4685              1565.0234              1630.5157
 Red. masses --      1.0962                 2.4758                 5.4167
 Frc consts  --      1.5089                 3.5728                 8.4847
 IR Inten    --      1.9324                22.6629                 0.4629

                     67                     68                     69
                      A                      A                      A
 Frequencies --   1675.0864              1817.3187              3016.3484
 Red. masses --      5.8145                10.9956                 1.0768
 Frc consts  --      9.6126                21.3959                 5.7723
 IR Inten    --      0.3094               212.3056                 5.2438

                     70                     71                     72
                      A                      A                      A
 Frequencies --   3020.4142              3030.0259              3035.7701
 Red. masses --      1.0731                 1.0673                 1.0694
 Frc consts  --      5.7679                 5.7732                 5.8066
 IR Inten    --      2.8998                10.7769                 9.2366

                     73                     74                     75
                      A                      A                      A
 Frequencies --   3039.7788              3041.2795              3083.0775
 Red. masses --      1.0408                 1.0627                 1.0959
 Frc consts  --      5.6665                 5.7915                 6.1378
 IR Inten    --     38.7371                54.3081                39.9355

                     76                     77                     78
                      A                      A                      A
 Frequencies --   3087.4650              3096.5671              3119.5626
 Red. masses --      1.1030                 1.0954                 1.0941
 Frc consts  --      6.1949                 6.1883                 6.2734
 IR Inten    --     38.0493                22.2655                23.6537

                     79                     80                     81
                      A                      A                      A
 Frequencies --   3122.7033              3123.2688              3168.6555
 Red. masses --      1.0953                 1.1027                 1.0864
 Frc consts  --      6.2928                 6.3376                 6.4267
 IR Inten    --     12.4030                17.2707                30.5928

                     82                     83                     84
                      A                      A                      A
 Frequencies --   3169.4389              3185.4033              3188.3841
 Red. masses --      1.0866                 1.0937                 1.0944
 Frc consts  --      6.4308                 6.5387                 6.5547
 IR Inten    --      0.1627                48.2949                 0.2572

 - Thermochemistry -
 -------------------
 Temperature   298.150 Kelvin.  Pressure   1.00000 Atm.
 Atom     1 has atomic number  8 and mass  15.99491

 Molecular mass:   188.12012 amu.
 Principal axes and moments of inertia in atomic units:
                           1         2         3
     Eigenvalues --   964.792325830.698546042.37673
           X            0.99987   0.01575   0.00165
           Y           -0.01570   0.99954  -0.02603
           Z           -0.00206   0.02600   0.99966
 This molecule is an asymmetric top.
 Rotational symmetry number  1.
 Warning -- assumption of classical behavior for rotation
           may cause significant error
 Rotational temperatures (Kelvin)      0.08977     0.01485     0.01433
 Rotational constants (GHZ):           1.87060     0.30952     0.29868
 Zero-point vibrational energy     683300.0 (Joules/Mol)
                                  163.31262 (Kcal/Mol)
 Warning -- explicit consideration of  18 degrees of freedom as
           vibrations may cause significant error
 Vibrational temperatures:     43.33    50.71    91.78   109.33   143.97
          (Kelvin)            252.20   282.24   361.30   391.72   508.36
                              519.74   582.72   603.17   646.51   680.09
                              720.02   793.20   801.86   923.08   949.93
                             1056.51  1093.67  1110.69  1178.80  1208.14
                             1230.12  1252.25  1267.17  1291.70  1326.72
                             1381.79  1384.69  1425.68  1466.46  1496.65
                             1505.34  1547.28  1547.80  1568.18  1615.23
                             1659.12  1742.76  1755.42  1766.83  1786.38
                             1796.23  1806.77  1848.73  1878.07  1914.69
                             1944.99  1949.68  1962.29  1984.55  2002.86
                             2028.54  2076.40  2107.97  2144.92  2155.61
                             2184.11  2184.26  2191.32  2199.13  2251.72
                             2345.95  2410.08  2614.72  4339.85  4345.70
                             4359.53  4367.80  4373.56  4375.72  4435.86
                             4442.17  4455.27  4488.35  4492.87  4493.69
                             4558.99  4560.12  4583.08  4587.37

 Zero-point correction=                           0.260255 (Hartree/Particle)
 Thermal correction to Energy=                    0.273208
 Thermal correction to Enthalpy=                  0.274152
 Thermal correction to Gibbs Free Energy=         0.219120
 Sum of electronic and zero-point Energies=           -579.998519
 Sum of electronic and thermal Energies=              -579.985567
 Sum of electronic and thermal Enthalpies=            -579.984622
 Sum of electronic and thermal Free Energies=         -580.039654

                     E (Thermal)             CV                S
                      KCal/Mol        Cal/Mol-Kelvin    Cal/Mol-Kelvin
 Total                  171.441             49.705            115.825
 Electronic               0.000              0.000              0.000
 Translational            0.889              2.981             41.602
 Rotational               0.889              2.981             31.897
 Vibrational            169.663             43.744             42.326
 Vibration     1          0.594              1.984              5.822
 Vibration     2          0.594              1.982              5.510
 Vibration     3          0.597              1.972              4.336
 Vibration     4          0.599              1.965              3.992
 Vibration     5          0.604              1.949              3.453
 Vibration     6          0.627              1.873              2.378
 Vibration     7          0.636              1.845              2.169
 Vibration     8          0.663              1.761              1.723
 Vibration     9          0.675              1.724              1.582
 Vibration    10          0.730              1.568              1.151
 Vibration    11          0.735              1.552              1.117
 Vibration    12          0.770              1.459              0.944
 Vibration    13          0.782              1.428              0.895
 Vibration    14          0.808              1.362              0.798
 Vibration    15          0.830              1.311              0.730
 Vibration    16          0.856              1.249              0.657
 Vibration    17          0.907              1.137              0.541
 Vibration    18          0.913              1.124              0.529

 Normal termination of Gaussian 16 at Sat Feb 24 02:30:26 2024.
