 Gaussian 16, Revision A.03,
 Gaussian 16:  EM64M-G16RevA.03 25-Dec-2016

 ---------------------
 # freq b3lyp/6-31g(d)
 ---------------------

 ---------
 good luck
 ---------
 Symbolic Z-matrix:
 Charge =  0 Multiplicity = 1

                         Standard orientation:
 ---------------------------------------------------------------------
 Center     Atomic      Atomic             Coordinates (Angstroms)
 Number     Number       Type             X           Y           Z
 ---------------------------------------------------------------------
      1          8           0       -2.372734    2.053800   -0.103813
      2          6           0       -1.337824    1.450921   -0.333147
      3          6           0       -0.053033    2.231434   -0.596750
      4          6           0        1.080965    1.984087    0.432753
      5          6           0        1.816613    0.674536    0.253313
      6          6           0        3.178929    0.679646   -0.069171
      7          6           0        3.886749   -0.507621   -0.257409
      8          6           0        3.227101   -1.728242   -0.125243
      9          6           0        1.869430   -1.745065    0.194768
     10          6           0        1.148697   -0.560084    0.388502
     11          6           0       -0.324258   -0.627742    0.730202
     12          6           0       -1.286619   -0.080445   -0.374241
     13          6           0       -2.703799   -0.712242   -0.326583
     14          6           0       -2.697710   -2.137259   -0.901781
     15          6           0       -3.349263   -0.684792    1.068477
     16          1           0       -0.333038    3.289072   -0.588336
     17          1           0        0.321237    1.985832   -1.599973
     18          1           0        1.797737    2.807459    0.342485
     19          1           0        0.660456    2.058856    1.445809
     20          1           0        3.692786    1.633067   -0.171822
     21          1           0        4.944354   -0.476629   -0.505223
     22          1           0        3.763209   -2.662616   -0.268325
     23          1           0        1.355206   -2.697947    0.300274
     24          1           0       -0.523943   -0.100387    1.672889
     25          1           0       -0.584867   -1.674842    0.912858
     26          1           0       -0.833828   -0.345595   -1.341904
     27          1           0       -3.330754   -0.093353   -0.980429
     28          1           0       -2.093380   -2.824504   -0.295919
     29          1           0       -2.301083   -2.158380   -1.924291
     30          1           0       -3.715503   -2.543609   -0.930397
     31          1           0       -2.805212   -1.314224    1.783669
     32          1           0       -4.374716   -1.069324    1.015263
     33          1           0       -3.392665    0.333921    1.461741
 ---------------------------------------------------------------------

 SCF Done:  E(RB3LYP) =  -619.566904314     A.U. after   15 cycles

 The electronic state is 1-A.
 Alpha  occ. eigenvalues --  -19.13678 -10.27051 -10.20061 -10.19776 -10.19763
 Alpha  occ. eigenvalues --  -10.19742 -10.19704 -10.19378 -10.19036 -10.19002
 Alpha  occ. eigenvalues --  -10.18964 -10.18943 -10.18707 -10.17351 -10.16502
 Alpha  occ. eigenvalues --   -1.03574  -0.86475  -0.81942  -0.79618  -0.76820
 Alpha  occ. eigenvalues --   -0.74002  -0.72365  -0.67808  -0.65632  -0.65132
 Alpha  occ. eigenvalues --   -0.60216  -0.57782  -0.55805  -0.52046  -0.50807
 Alpha  occ. eigenvalues --   -0.47461  -0.47320  -0.46574  -0.45156  -0.43753
 Alpha  occ. eigenvalues --   -0.43002  -0.42214  -0.41696  -0.41278  -0.39582
 Alpha  occ. eigenvalues --   -0.39208  -0.37968  -0.37726  -0.36898  -0.35882
 Alpha  occ. eigenvalues --   -0.35643  -0.34544  -0.33890  -0.33545  -0.32453
 Alpha  occ. eigenvalues --   -0.31995  -0.31317  -0.24894  -0.23998  -0.23725
 Alpha virt. eigenvalues --   -0.01508  -0.00406  -0.00033   0.08464   0.08987
 Alpha virt. eigenvalues --    0.10338   0.10578   0.12305   0.13412   0.14170
 Alpha virt. eigenvalues --    0.14580   0.15024   0.16146   0.16471   0.17172

 Mulliken charges:
               1
     1  O   -0.446878
     2  C    0.440060
     3  C   -0.335412
     4  C   -0.369805
     5  C    0.134096
     6  C   -0.194178
     7  C   -0.125758
     8  C   -0.127538
     9  C   -0.191452
    10  C    0.126506
    11  C   -0.385880
    12  C   -0.158064
    13  C   -0.069070
    14  C   -0.453665
    15  C   -0.455781
    16  H    0.164576
    17  H    0.157625
    18  H    0.153865
    19  H    0.159703
    20  H    0.124175
    21  H    0.129202
    22  H    0.129348
    23  H    0.124415
    24  H    0.159398
    25  H    0.158006
    26  H    0.143682
    27  H    0.143763
    28  H    0.137137
    29  H    0.139963
    30  H    0.145859
    31  H    0.133870
    32  H    0.139434
    33  H    0.168797
 Sum of Mulliken charges =  -0.00000

 Dipole moment (field-independent basis, Debye):
    X=              2.0599    Y=             -1.1125    Z=             -0.3900  Tot=              2.3733
 Quadrupole moment (field-independent basis, Debye-Ang):
   XX=            -93.3107   YY=            -89.4162   ZZ=            -90.9544
   XY=              6.9561   XZ=             -0.8354   YZ=             -0.3431

  Exact polarizability: 180.659  -4.010 151.642 -10.927   1.554  90.848
 Approx polarizability: 252.466 -11.739 238.421 -22.929   2.884 142.866

                      1                      2                      3
                      A                      A                      A
 Frequencies --     50.1591                60.7941                99.4199
 Red. masses --      4.8913                 3.3816                 3.0190
 Frc consts  --      0.0073                 0.0074                 0.0176
 IR Inten    --      1.5437                 0.1877                 1.1946

                      4                      5                      6
                      A                      A                      A
 Frequencies --    131.2713               138.8873               196.2483
 Red. masses --      3.6915                 3.3081                 2.9902
 Frc consts  --      0.0375                 0.0376                 0.0679
 IR Inten    --      0.9318                 0.1883                 0.4405

                      7                      8                      9
                      A                      A                      A
 Frequencies --    215.2936               232.6033               250.0255
 Red. masses --      2.6326                 1.1818                 1.1365
 Frc consts  --      0.0719                 0.0377                 0.0419
 IR Inten    --      1.6634                 0.0827                 0.0771

                     10                     11                     12
                      A                      A                      A
 Frequencies --    264.2995               316.0811               327.9859
 Red. masses --      3.6421                 2.4685                 3.4941
 Frc consts  --      0.1499                 0.1453                 0.2215
 IR Inten    --      2.9556                 1.2948                 0.6680

                     13                     14                     15
                      A                      A                      A
 Frequencies --    356.3190               368.1277               409.3514
 Red. masses --      2.9416                 3.2583                 2.2535
 Frc consts  --      0.2200                 0.2602                 0.2225
 IR Inten    --      0.0950                 2.4427                 0.6166

                     16                     17                     18
                      A                      A                      A
 Frequencies --    429.8123               482.3024               498.3397
 Red. masses --      2.4200                 3.5440                 2.9808
 Frc consts  --      0.2634                 0.4857                 0.4361
 IR Inten    --      1.7093                 5.1747                 1.6192

                     19                     20                     21
                      A                      A                      A
 Frequencies --    544.5370               572.3680               586.4879
 Red. masses --      3.1458                 3.8228                 3.4162
 Frc consts  --      0.5496                 0.7379                 0.6923
 IR Inten    --      0.7083                 6.0153                 0.6128

                     22                     23                     24
                      A                      A                      A
 Frequencies --    633.7541               708.7943               746.0629
 Red. masses --      4.3684                 3.3392                 3.2331
 Frc consts  --      1.0337                 0.9884                 1.0603
 IR Inten    --      2.9406                 6.8424                 1.4620

                     25                     26                     27
                      A                      A                      A
 Frequencies --    755.6110               772.1422               786.8839
 Red. masses --      4.1653                 1.3655                 2.6049
 Frc consts  --      1.4012                 0.4797                 0.9503
 IR Inten    --      0.6839                29.6190                 6.5003

                     28                     29                     30
                      A                      A                      A
 Frequencies --    816.4150               858.0175               889.8695
 Red. masses --      2.6980                 2.5296                 1.5832
 Frc consts  --      1.0596                 1.0972                 0.7386
 IR Inten    --      3.9449                 0.3028                 0.3941

                     31                     32                     33
                      A                      A                      A
 Frequencies --    905.6718               937.2755               944.3740
 Red. masses --      2.4315                 1.2685                 1.3819
 Frc consts  --      1.1751                 0.6566                 0.7261
 IR Inten    --      9.6944                 1.8053                 0.4761

                     34                     35                     36
                      A                      A                      A
 Frequencies --    949.3960               968.8364               977.5137
 Red. masses --      1.7809                 2.3509                 1.5159
 Frc consts  --      0.9458                 1.3001                 0.8534
 IR Inten    --      1.5793                 0.2731                 0.1694

                     37                     38                     39
                      A                      A                      A
 Frequencies --    984.1145               987.6525              1022.0841
 Red. masses --      1.2651                 2.5196                 2.1498
 Frc consts  --      0.7219                 1.4480                 1.3232
 IR Inten    --      0.0027                 0.5455                 0.5947

                     40                     41                     42
                      A                      A                      A
 Frequencies --   1032.3260              1081.4048              1111.6111
 Red. masses --      2.3493                 2.2899                 2.0804
 Frc consts  --      1.4751                 1.5778                 1.5146
 IR Inten    --     14.1694                 2.5269                28.5864

                     43                     44                     45
                      A                      A                      A
 Frequencies --   1121.9985              1147.6525              1167.2206
 Red. masses --      1.8598                 1.6597                 2.0518
 Frc consts  --      1.3794                 1.2879                 1.6470
 IR Inten    --      2.7433                 3.1662                 5.7759

                     46                     47                     48
                      A                      A                      A
 Frequencies --   1196.6242              1201.2277              1209.1707
 Red. masses --      1.1025                 1.2547                 1.9553
 Frc consts  --      0.9301                 1.0667                 1.6844
 IR Inten    --      0.0781                 6.6085                 0.9979

                     49                     50                     51
                      A                      A                      A
 Frequencies --   1216.5641              1221.9057              1250.0293
 Red. masses --      2.1132                 1.5924                 2.1677
 Frc consts  --      1.8427                 1.4008                 1.9957
 IR Inten    --     10.5935                 1.1836                 0.5042

                     52                     53                     54
                      A                      A                      A
 Frequencies --   1274.0919              1293.3194              1330.7196
 Red. masses --      1.3301                 1.3273                 1.4264
 Frc consts  --      1.2722                 1.3080                 1.4882
 IR Inten    --     11.1467                 1.3204                11.3100

                     55                     56                     57
                      A                      A                      A
 Frequencies --   1342.1734              1348.8452              1360.0456
 Red. masses --      1.4621                 1.4975                 1.9803
 Frc consts  --      1.5518                 1.6052                 2.1582
 IR Inten    --      1.7115                 0.4421                 9.3983

                     58                     59                     60
                      A                      A                      A
 Frequencies --   1366.6391              1391.0506              1393.7889
 Red. masses --      1.6809                 1.3998                 1.3933
 Frc consts  --      1.8497                 1.5959                 1.5948
 IR Inten    --      3.7638                 2.9587                 5.6147

                     61                     62                     63
                      A                      A                      A
 Frequencies --   1406.6933              1429.0036              1449.1484
 Red. masses --      1.6025                 1.2788                 1.2323
 Frc consts  --      1.8683                 1.5386                 1.5248
 IR Inten    --      8.3709                 9.7320                 6.1345

                     64                     65                     66
                      A                      A                      A
 Frequencies --   1497.7280              1499.8352              1513.5281
 Red. masses --      2.0038                 1.1048                 1.1522
 Frc consts  --      2.6484                 1.4643                 1.5551
 IR Inten    --      2.6669                 6.1691                 6.0073

                     67                     68                     69
                      A                      A                      A
 Frequencies --   1520.4382              1523.0510              1532.8353
 Red. masses --      1.0524                 1.1159                 1.1568
 Frc consts  --      1.4334                 1.5252                 1.6015
 IR Inten    --      2.5627                 1.9322                 8.0722

                     70                     71                     72
                      A                      A                      A
 Frequencies --   1537.3406              1541.7949              1544.9091
 Red. masses --      1.0529                 1.7849                 1.1142
 Frc consts  --      1.4662                 2.4998                 1.5668
 IR Inten    --      5.1218                17.1062                 2.8555

                     73                     74                     75
                      A                      A                      A
 Frequencies --   1637.5174              1663.8857              1791.5540
 Red. masses --      5.9022                 5.7881                10.9311
 Frc consts  --      9.3248                 9.4414                20.6715
 IR Inten    --      0.3194                 0.5496               168.0189

                     76                     77                     78
                      A                      A                      A
 Frequencies --   3012.3170              3030.8076              3037.3312
 Red. masses --      1.0810                 1.0684                 1.0363
 Frc consts  --      5.7793                 5.7821                 5.6329
 IR Inten    --      7.7180                15.8250                20.9503

                     79                     80                     81
                      A                      A                      A
 Frequencies --   3039.8560              3046.9428              3048.3673
 Red. masses --      1.0659                 1.0635                 1.0499
 Frc consts  --      5.8035                 5.8172                 5.7480
 IR Inten    --     11.4102                22.6899                25.4497

                     82                     83                     84
                      A                      A                      A
 Frequencies --   3053.4489              3088.9854              3096.5053
 Red. masses --      1.0748                 1.0966                 1.0989
 Frc consts  --      5.9041                 6.1648                 6.2081
 IR Inten    --     16.5769                23.3885                16.5570

                     85                     86                     87
                      A                      A                      A
 Frequencies --   3100.1475              3105.2722              3108.9756
 Red. masses --      1.0986                 1.1003                 1.1007
 Frc consts  --      6.2208                 6.2511                 6.2685
 IR Inten    --     13.0305                45.7572                71.2122

                     88                     89                     90
                      A                      A                      A
 Frequencies --   3116.2605              3146.9099              3172.4756
 Red. masses --      1.0990                 1.0993                 1.0861
 Frc consts  --      6.2879                 6.4139                 6.4403
 IR Inten    --     21.1141                14.5686                14.8009

                     91                     92                     93
                      A                      A                      A
 Frequencies --   3176.5128              3191.9103              3206.9881
 Red. masses --      1.0887                 1.0914                 1.0974
 Frc consts  --      6.4723                 6.5516                 6.6496
 IR Inten    --      2.0547                27.6257                29.2228

 - Thermochemistry -
 -------------------
 Temperature   298.150 Kelvin.  Pressure   1.00000 Atm.
 Atom     1 has atomic number  8 and mass  15.99491

 Molecular mass:   202.13577 amu.
 Principal axes and moments of inertia in atomic units:
                           1         2         3
     Eigenvalues --  1778.242554225.829315518.25618
           X            0.99931   0.03674  -0.00502
           Y           -0.03672   0.99931   0.00499
           Z            0.00520  -0.00480   0.99997
 This molecule is an asymmetric top.
 Rotational symmetry number  1.
 Warning -- assumption of classical behavior for rotation
           may cause significant error
 Rotational temperatures (Kelvin)      0.04871     0.02050     0.01570
 Rotational constants (GHZ):           1.01490     0.42707     0.32705
 Zero-point vibrational energy     760244.0 (Joules/Mol)
                                  181.70267 (Kcal/Mol)
 Warning -- explicit consideration of  21 degrees of freedom as
           vibrations may cause significant error
 Vibrational temperatures:     72.17    87.47   143.04   188.87   199.83
          (Kelvin)            282.36   309.76   334.66   359.73   380.27
                              454.77   471.90   512.66   529.65   588.97
                              618.40   693.93   717.00   783.47   823.51
                              843.83   911.83  1019.80  1073.42  1087.16
                             1110.94  1132.15  1174.64  1234.50  1280.32
                             1303.06  1348.53  1358.74  1365.97  1393.94
                             1406.42  1415.92  1421.01  1470.55  1485.29
                             1555.90  1599.36  1614.31  1651.22  1679.37
                             1721.68  1728.30  1739.73  1750.36  1758.05
                             1798.51  1833.13  1860.80  1914.61  1931.09
                             1940.69  1956.80  1966.29  2001.41  2005.35
                             2023.92  2056.02  2085.00  2154.90  2157.93
                             2177.63  2187.57  2191.33  2205.41  2211.89
                             2218.30  2222.78  2356.02  2393.96  2577.65
                             4334.05  4360.66  4370.04  4373.67  4383.87
                             4385.92  4393.23  4444.36  4455.18  4460.42
                             4467.79  4473.12  4483.60  4527.70  4564.48
                             4570.29  4592.45  4614.14

 Zero-point correction=                           0.289562 (Hartree/Particle)
 Thermal correction to Energy=                    0.303326
 Thermal correction to Enthalpy=                  0.304270
 Thermal correction to Gibbs Free Energy=         0.249461
 Sum of electronic and zero-point Energies=           -619.277343
 Sum of electronic and thermal Energies=              -619.263579
 Sum of electronic and thermal Enthalpies=            -619.262635
 Sum of electronic and thermal Free Energies=         -619.317443

                     E (Thermal)             CV                S
                      KCal/Mol        Cal/Mol-Kelvin    Cal/Mol-Kelvin
 Total                  190.340             54.800            115.355
 Electronic               0.000              0.000              0.000
 Translational            0.889              2.981             41.816
 Rotational               0.889              2.981             32.095
 Vibrational            188.562             48.839             41.444
 Vibration     1          0.595              1.978              4.811
 Vibration     2          0.597              1.973              4.431
 Vibration     3          0.604              1.950              3.466
 Vibration     4          0.612              1.922              2.927
 Vibration     5          0.614              1.914              2.819
 Vibration     6          0.636              1.845              2.168
 Vibration     7          0.645              1.818              1.998
 Vibration     8          0.653              1.791              1.859
 Vibration     9          0.663              1.763              1.730
 Vibration    10          0.671              1.738              1.633
 Vibration    11          0.703              1.643              1.330
 Vibration    12          0.711              1.620              1.270
 Vibration    13          0.732              1.562              1.138
 Vibration    14          0.741              1.538              1.088
 Vibration    15          0.774              1.450              0.929
 Vibration    16          0.791              1.405              0.859
 Vibration    17          0.839              1.289              0.704
 Vibration    18          0.854              1.254              0.662
 Vibration    19          0.900              1.152              0.556
 Vibration    20          0.929              1.091              0.500
 Vibration    21          0.944              1.061              0.473

 Normal termination of Gaussian 16 at Sat Feb 24 01:28:54 2024.
