 Gaussian 16, Revision A.03,
 Gaussian 16:  EM64M-G16RevA.03 25-Dec-2016

 ---------------------
 # freq b3lyp/6-31g(d)
 ---------------------

 ---------
 good luck
 ---------
 Symbolic Z-matrix:
 Charge =  0 Multiplicity = 1

                         Standard orientation:
 ---------------------------------------------------------------------
 Center     Atomic      Atomic             Coordinates (Angstroms)
 Number     Number       Type             X           Y           Z
 ---------------------------------------------------------------------
      1          8           0       -2.767575   -1.770360    0.716351
      2          6           0       -1.794950   -1.194330    0.259658
      3          6           0       -0.829177   -1.932231   -0.659220
      4          6           0        0.562858   -2.165132   -0.012988
      5          6           0        1.470449   -0.953763    0.000578
      6          6           0        2.687981   -0.999656   -0.689864
      7          6           0        3.564323    0.085507   -0.699283
      8          6           0        3.225726    1.245077   -0.005175
      9          6           0        2.013670    1.304243    0.682777
     10          6           0        1.121100    0.224139    0.696323
     11          6           0       -0.176820    0.337547    1.470943
     12          6           0       -1.500454    0.256470    0.646534
     13          6           0       -1.566360    1.226419   -0.565123
     14          6           0       -2.872838    1.036768   -1.354646
     15          6           0       -1.432884    2.691358   -0.120317
     16          1           0       -1.293347   -2.896186   -0.887257
     17          1           0       -0.697161   -1.381983   -1.599567
     18          1           0        1.058897   -2.969064   -0.567374
     19          1           0        0.414611   -2.548234    1.007002
     20          1           0        2.954817   -1.908254   -1.225319
     21          1           0        4.503995    0.021197   -1.241261
     22          1           0        3.898269    2.098575    0.004626
     23          1           0        1.755747    2.206829    1.232318
     24          1           0       -0.221365   -0.443710    2.243635
     25          1           0       -0.177290    1.287859    2.014411
     26          1           0       -2.314895    0.522111    1.332691
     27          1           0       -0.723657    1.001724   -1.233333
     28          1           0       -2.977272    0.020957   -1.752014
     29          1           0       -3.746261    1.229706   -0.719360
     30          1           0       -2.914703    1.730623   -2.202030
     31          1           0       -2.221127    2.957060    0.596278
     32          1           0       -0.465166    2.897283    0.346855
     33          1           0       -1.529252    3.361901   -0.982291
 ---------------------------------------------------------------------

 SCF Done:  E(RB3LYP) =  -619.566268640     A.U. after   15 cycles

 The electronic state is 1-A.
 Alpha  occ. eigenvalues --  -19.13201 -10.26638 -10.20063 -10.19882 -10.19829
 Alpha  occ. eigenvalues --  -10.19732 -10.19634 -10.19449 -10.19253 -10.19119
 Alpha  occ. eigenvalues --  -10.19084 -10.19048 -10.19027 -10.17695 -10.17517
 Alpha  occ. eigenvalues --   -1.03114  -0.86530  -0.82308  -0.79541  -0.77105
 Alpha  occ. eigenvalues --   -0.73917  -0.72712  -0.68543  -0.65218  -0.65027
 Alpha  occ. eigenvalues --   -0.60279  -0.58244  -0.56234  -0.52875  -0.50217
 Alpha  occ. eigenvalues --   -0.47467  -0.47254  -0.45812  -0.45600  -0.44453
 Alpha  occ. eigenvalues --   -0.43382  -0.42193  -0.41670  -0.40710  -0.39849
 Alpha  occ. eigenvalues --   -0.39147  -0.38626  -0.38327  -0.36470  -0.36171
 Alpha  occ. eigenvalues --   -0.35618  -0.34569  -0.33987  -0.33640  -0.33268
 Alpha  occ. eigenvalues --   -0.32410  -0.31590  -0.24928  -0.24098  -0.23316
 Alpha virt. eigenvalues --   -0.01212  -0.00564  -0.00148   0.07681   0.09510
 Alpha virt. eigenvalues --    0.10402   0.10506   0.12010   0.12861   0.13921
 Alpha virt. eigenvalues --    0.14353   0.15084   0.15628   0.15911   0.16887

 Mulliken charges:
               1
     1  O   -0.453281
     2  C    0.441021
     3  C   -0.339688
     4  C   -0.372346
     5  C    0.128181
     6  C   -0.192505
     7  C   -0.126353
     8  C   -0.126931
     9  C   -0.195242
    10  C    0.138677
    11  C   -0.395480
    12  C   -0.136769
    13  C   -0.087906
    14  C   -0.453218
    15  C   -0.451846
    16  H    0.164327
    17  H    0.158319
    18  H    0.154089
    19  H    0.161844
    20  H    0.124803
    21  H    0.129821
    22  H    0.129762
    23  H    0.126122
    24  H    0.159474
    25  H    0.153944
    26  H    0.143997
    27  H    0.137303
    28  H    0.150043
    29  H    0.151444
    30  H    0.143391
    31  H    0.142148
    32  H    0.147255
    33  H    0.145600
 Sum of Mulliken charges =  -0.00000

 Dipole moment (field-independent basis, Debye):
    X=              2.2397    Y=              1.3041    Z=             -0.9513  Tot=              2.7608
 Quadrupole moment (field-independent basis, Debye-Ang):
   XX=            -96.8630   YY=            -88.7022   ZZ=            -89.7682
   XY=             -6.0549   XZ=              1.0098   YZ=              4.0055

  Exact polarizability: 166.742  10.456 146.948 -17.449  10.711 105.959
 Approx polarizability: 237.824  24.160 227.239 -40.851  21.630 171.977

                      1                      2                      3
                      A                      A                      A
 Frequencies --     56.0360                62.5575                74.6122
 Red. masses --      5.1666                 3.7835                 2.7327
 Frc consts  --      0.0096                 0.0087                 0.0090
 IR Inten    --      2.2190                 0.1643                 0.7487

                      4                      5                      6
                      A                      A                      A
 Frequencies --    110.0487               163.1708               180.4240
 Red. masses --      4.3466                 3.5459                 2.9636
 Frc consts  --      0.0310                 0.0556                 0.0568
 IR Inten    --      1.4476                 0.7667                 0.1164

                      7                      8                      9
                      A                      A                      A
 Frequencies --    211.3474               229.7804               235.2256
 Red. masses --      1.8977                 1.4293                 1.2450
 Frc consts  --      0.0499                 0.0445                 0.0406
 IR Inten    --      0.5167                 0.0888                 0.3594

                     10                     11                     12
                      A                      A                      A
 Frequencies --    299.9703               317.4480               324.0347
 Red. masses --      3.2507                 2.3307                 2.7995
 Frc consts  --      0.1723                 0.1384                 0.1732
 IR Inten    --      1.2303                 0.8607                 1.6393

                     13                     14                     15
                      A                      A                      A
 Frequencies --    360.8397               401.1608               406.6403
 Red. masses --      2.9827                 2.6776                 2.1856
 Frc consts  --      0.2288                 0.2539                 0.2129
 IR Inten    --      0.2998                 0.2885                 0.0391

                     16                     17                     18
                      A                      A                      A
 Frequencies --    441.1149               472.8621               501.0277
 Red. masses --      2.6365                 3.4514                 3.2483
 Frc consts  --      0.3023                 0.4547                 0.4804
 IR Inten    --      1.4743                 3.0344                 2.7465

                     19                     20                     21
                      A                      A                      A
 Frequencies --    528.9594               550.7292               593.1912
 Red. masses --      4.5355                 2.7194                 3.9979
 Frc consts  --      0.7477                 0.4860                 0.8288
 IR Inten    --      5.5523                 4.0745                 2.3540

                     22                     23                     24
                      A                      A                      A
 Frequencies --    630.0271               705.4379               743.1777
 Red. masses --      3.8789                 4.3202                 3.2381
 Frc consts  --      0.9071                 1.2667                 1.0537
 IR Inten    --      1.2891                 1.9765                 2.3644

                     25                     26                     27
                      A                      A                      A
 Frequencies --    755.1811               766.4378               792.3186
 Red. masses --      2.3140                 2.1879                 2.0848
 Frc consts  --      0.7775                 0.7572                 0.7711
 IR Inten    --     11.0060                14.5765                12.1701

                     28                     29                     30
                      A                      A                      A
 Frequencies --    816.8619               862.9296               889.9131
 Red. masses --      2.7177                 2.3221                 1.5599
 Frc consts  --      1.0684                 1.0188                 0.7278
 IR Inten    --      1.1577                 1.8164                 1.9674

                     31                     32                     33
                      A                      A                      A
 Frequencies --    909.3346               926.5685               942.3675
 Red. masses --      1.8761                 2.2736                 1.1903
 Frc consts  --      0.9140                 1.1501                 0.6228
 IR Inten    --      6.2178                 2.0760                 1.7867

                     34                     35                     36
                      A                      A                      A
 Frequencies --    949.8664               970.9083               973.8269
 Red. masses --      1.3949                 1.8207                 2.2058
 Frc consts  --      0.7415                 1.0112                 1.2325
 IR Inten    --      1.3672                 1.7547                 1.0865

                     37                     38                     39
                      A                      A                      A
 Frequencies --    984.7696               987.4752              1016.9005
 Red. masses --      1.2629                 2.0014                 2.2633
 Frc consts  --      0.7216                 1.1499                 1.3789
 IR Inten    --      0.0397                 1.9388                 1.6711

                     40                     41                     42
                      A                      A                      A
 Frequencies --   1041.4958              1082.7658              1111.6197
 Red. masses --      2.4021                 2.2902                 2.2454
 Frc consts  --      1.5352                 1.5819                 1.6348
 IR Inten    --      3.2812                 2.2121                24.0070

                     43                     44                     45
                      A                      A                      A
 Frequencies --   1128.4036              1143.3195              1184.9152
 Red. masses --      1.8678                 1.8905                 1.7357
 Frc consts  --      1.4013                 1.4560                 1.4358
 IR Inten    --      0.2477                 0.2497                 4.0733

                     46                     47                     48
                      A                      A                      A
 Frequencies --   1197.0201              1199.2059              1204.2909
 Red. masses --      1.1257                 1.7037                 1.2601
 Frc consts  --      0.9503                 1.4436                 1.0767
 IR Inten    --      0.5277                 5.4860                 9.2231

                     49                     50                     51
                      A                      A                      A
 Frequencies --   1210.2461              1240.5929              1251.4047
 Red. masses --      2.5187                 1.7278                 1.6124
 Frc consts  --      2.1736                 1.5667                 1.4877
 IR Inten    --      8.5830                 1.5094                 3.0428

                     52                     53                     54
                      A                      A                      A
 Frequencies --   1287.4815              1296.8951              1316.4466
 Red. masses --      1.4351                 1.5011                 1.4736
 Frc consts  --      1.4016                 1.4875                 1.5046
 IR Inten    --      5.6936                10.8946                 1.6530

                     55                     56                     57
                      A                      A                      A
 Frequencies --   1335.7869              1351.8769              1357.5332
 Red. masses --      1.3986                 1.5570                 2.6209
 Frc consts  --      1.4703                 1.6765                 2.8458
 IR Inten    --      6.5261                 3.9441                 4.9569

                     58                     59                     60
                      A                      A                      A
 Frequencies --   1368.3553              1389.7910              1394.1190
 Red. masses --      1.3840                 1.4620                 1.4796
 Frc consts  --      1.5268                 1.6638                 1.6944
 IR Inten    --      1.6300                 5.0032                 6.9975

                     61                     62                     63
                      A                      A                      A
 Frequencies --   1405.2184              1431.5225              1453.0396
 Red. masses --      1.3619                 1.2461                 1.2220
 Frc consts  --      1.5845                 1.5046                 1.5201
 IR Inten    --      8.4077                 5.6781                 7.6073

                     64                     65                     66
                      A                      A                      A
 Frequencies --   1496.5855              1502.6909              1514.4633
 Red. masses --      2.0451                 1.1138                 1.1076
 Frc consts  --      2.6988                 1.4819                 1.4968
 IR Inten    --      2.4307                 6.3740                 5.5262

                     67                     68                     69
                      A                      A                      A
 Frequencies --   1516.7481              1522.4336              1527.0727
 Red. masses --      1.0823                 1.0939                 1.1404
 Frc consts  --      1.4670                 1.4938                 1.5668
 IR Inten    --      1.7977                 5.6316                11.0456

                     70                     71                     72
                      A                      A                      A
 Frequencies --   1534.3806              1539.7660              1544.5543
 Red. masses --      1.0562                 1.7847                 1.1358
 Frc consts  --      1.4651                 2.4930                 1.5964
 IR Inten    --      0.8032                 7.6718                 9.4182

                     73                     74                     75
                      A                      A                      A
 Frequencies --   1635.6049              1662.9994              1795.5103
 Red. masses --      5.8323                 5.7542                10.5829
 Frc consts  --      9.1927                 9.3760                20.1016
 IR Inten    --      0.3259                 0.1311               178.6626

                     76                     77                     78
                      A                      A                      A
 Frequencies --   3027.1013              3029.5152              3034.4367
 Red. masses --      1.0705                 1.0683                 1.0807
 Frc consts  --      5.7793                 5.7771                 5.8631
 IR Inten    --     17.3846                20.8029                 5.3676

                     79                     80                     81
                      A                      A                      A
 Frequencies --   3041.7507              3045.9756              3054.8526
 Red. masses --      1.0385                 1.0412                 1.0708
 Frc consts  --      5.6612                 5.6916                 5.8874
 IR Inten    --     20.8666                18.2880                26.8620

                     82                     83                     84
                      A                      A                      A
 Frequencies --   3056.8588              3089.3977              3093.4094
 Red. masses --      1.0724                 1.0957                 1.0929
 Frc consts  --      5.9044                 6.1615                 6.1615
 IR Inten    --     25.0170                24.3669                15.8033

                     85                     86                     87
                      A                      A                      A
 Frequencies --   3102.9500              3111.7594              3114.9962
 Red. masses --      1.1014                 1.1011                 1.1021
 Frc consts  --      6.2480                 6.2820                 6.3005
 IR Inten    --      8.6155                43.8655                43.7279

                     88                     89                     90
                      A                      A                      A
 Frequencies --   3119.8648              3130.1215              3173.0873
 Red. masses --      1.1011                 1.0988                 1.0860
 Frc consts  --      6.3146                 6.3428                 6.4422
 IR Inten    --     17.7949                33.5907                14.5757

                     91                     92                     93
                      A                      A                      A
 Frequencies --   3177.2299              3192.3295              3207.3308
 Red. masses --      1.0886                 1.0914                 1.0974
 Frc consts  --      6.4747                 6.5534                 6.6513
 IR Inten    --      2.5272                28.0296                27.6315

 - Thermochemistry -
 -------------------
 Temperature   298.150 Kelvin.  Pressure   1.00000 Atm.
 Atom     1 has atomic number  8 and mass  15.99491

 Molecular mass:   202.13577 amu.
 Principal axes and moments of inertia in atomic units:
                           1         2         3
     Eigenvalues --  1967.953943678.913944748.34450
           X            0.99927  -0.03740   0.00785
           Y            0.03728   0.99920   0.01474
           Z           -0.00840  -0.01443   0.99986
 This molecule is an asymmetric top.
 Rotational symmetry number  1.
 Warning -- assumption of classical behavior for rotation
           may cause significant error
 Rotational temperatures (Kelvin)      0.04401     0.02354     0.01824
 Rotational constants (GHZ):           0.91706     0.49056     0.38008
 Zero-point vibrational energy     760374.0 (Joules/Mol)
                                  181.73375 (Kcal/Mol)
 Warning -- explicit consideration of  21 degrees of freedom as
           vibrations may cause significant error
 Vibrational temperatures:     80.62    90.01   107.35   158.34   234.77
          (Kelvin)            259.59   304.08   330.60   338.44   431.59
                              456.74   466.21   519.17   577.18   585.06
                              634.67   680.34   720.87   761.05   792.38
                              853.47   906.47  1014.97  1069.27  1086.54
                             1102.73  1139.97  1175.28  1241.56  1280.39
                             1308.33  1333.13  1355.86  1366.65  1396.92
                             1401.12  1416.86  1420.76  1463.09  1498.48
                             1557.86  1599.37  1623.52  1644.98  1704.83
                             1722.24  1725.39  1732.71  1741.27  1784.94
                             1800.49  1852.40  1865.94  1894.07  1921.90
                             1945.05  1953.19  1968.76  1999.60  2005.83
                             2021.80  2059.64  2090.60  2153.25  2162.04
                             2178.97  2182.26  2190.44  2197.12  2207.63
                             2215.38  2222.27  2353.27  2392.69  2583.34
                             4355.32  4358.80  4365.88  4376.40  4382.48
                             4395.25  4398.14  4444.95  4450.73  4464.45
                             4477.13  4481.78  4488.79  4503.55  4565.36
                             4571.33  4593.05  4614.63

 Zero-point correction=                           0.289611 (Hartree/Particle)
 Thermal correction to Energy=                    0.303400
 Thermal correction to Enthalpy=                  0.304344
 Thermal correction to Gibbs Free Energy=         0.249456
 Sum of electronic and zero-point Energies=           -619.276657
 Sum of electronic and thermal Energies=              -619.262868
 Sum of electronic and thermal Enthalpies=            -619.261924
 Sum of electronic and thermal Free Energies=         -619.316813

                     E (Thermal)             CV                S
                      KCal/Mol        Cal/Mol-Kelvin    Cal/Mol-Kelvin
 Total                  190.386             54.789            115.523
 Electronic               0.000              0.000              0.000
 Translational            0.889              2.981             41.816
 Rotational               0.889              2.981             31.908
 Vibrational            188.609             48.827             41.799
 Vibration     1          0.596              1.975              4.592
 Vibration     2          0.597              1.972              4.375
 Vibration     3          0.599              1.966              4.028
 Vibration     4          0.606              1.941              3.268
 Vibration     5          0.623              1.888              2.513
 Vibration     6          0.629              1.866              2.324
 Vibration     7          0.643              1.824              2.032
 Vibration     8          0.652              1.796              1.881
 Vibration     9          0.655              1.787              1.839
 Vibration    10          0.693              1.674              1.417
 Vibration    11          0.704              1.640              1.323
 Vibration    12          0.709              1.627              1.290
 Vibration    13          0.735              1.553              1.118
 Vibration    14          0.767              1.468              0.958
 Vibration    15          0.771              1.456              0.939
 Vibration    16          0.801              1.380              0.823
 Vibration    17          0.830              1.310              0.730
 Vibration    18          0.856              1.248              0.656
 Vibration    19          0.884              1.186              0.590
 Vibration    20          0.906              1.138              0.543
 Vibration    21          0.951              1.046              0.462

 Normal termination of Gaussian 16 at Sat Feb 24 01:24:21 2024.
