 Gaussian 16, Revision A.03,
 Gaussian 16:  EM64M-G16RevA.03 25-Dec-2016

 ---------------------
 # freq b3lyp/6-31g(d)
 ---------------------

 ---------
 good luck
 ---------
 Symbolic Z-matrix:
 Charge =  0 Multiplicity = 1

                         Standard orientation:
 ---------------------------------------------------------------------
 Center     Atomic      Atomic             Coordinates (Angstroms)
 Number     Number       Type             X           Y           Z
 ---------------------------------------------------------------------
      1          8           0       -2.979551    0.843091   -1.096892
      2          6           0       -2.032622    0.289652   -0.574181
      3          6           0       -1.720590   -1.197999   -0.750332
      4          6           0       -0.440857   -1.549047    0.030469
      5          6           0        0.732586   -0.696165   -0.536631
      6          6           0        2.064382   -1.112314    0.035018
      7          6           0        3.049341   -1.662938   -0.675992
      8          6           0        0.383097    0.845030   -0.363288
      9          6           0        1.426299    1.661290    0.357793
     10          6           0        2.040716    2.723603   -0.164348
     11          6           0       -1.016295    0.983371    0.321886
     12          6           0       -1.033106    0.268869    1.695544
     13          6           0       -0.677930   -1.237292    1.522382
     14          1           0       -2.582883   -1.780104   -0.398351
     15          1           0       -1.619768   -1.410710   -1.822879
     16          1           0       -0.199284   -2.610535   -0.096706
     17          1           0        0.779781   -0.895840   -1.614837
     18          1           0        2.212904   -0.972909    1.105444
     19          1           0        2.960357   -1.823637   -1.748878
     20          1           0        3.985321   -1.969424   -0.216637
     21          1           0        0.292067    1.274857   -1.368099
     22          1           0        1.668980    1.369522    1.378996
     23          1           0        1.839016    3.060325   -1.179435
     24          1           0        2.772019    3.296094    0.399926
     25          1           0       -1.285757    2.038627    0.418818
     26          1           0       -2.023062    0.387455    2.149964
     27          1           0       -0.328653    0.766183    2.370654
     28          1           0       -1.491908   -1.869728    1.896311
     29          1           0        0.207150   -1.501280    2.110924
 ---------------------------------------------------------------------

 SCF Done:  E(RB3LYP) =  -542.080654232     A.U. after   14 cycles

 The electronic state is 1-A.
 Alpha  occ. eigenvalues --  -19.13204 -10.26679 -10.20462 -10.20076 -10.19821
 Alpha  occ. eigenvalues --  -10.19433 -10.19410 -10.19231 -10.19158 -10.19056
 Alpha  occ. eigenvalues --  -10.19053 -10.18235 -10.18214  -1.03133  -0.86819
 Alpha  occ. eigenvalues --   -0.79403  -0.78678  -0.74928  -0.73187  -0.70840
 Alpha  occ. eigenvalues --   -0.62847  -0.61812  -0.58309  -0.57448  -0.53827
 Alpha  occ. eigenvalues --   -0.51325  -0.49434  -0.47826  -0.46621  -0.44977
 Alpha  occ. eigenvalues --   -0.44061  -0.41990  -0.41476  -0.41231  -0.40278
 Alpha  occ. eigenvalues --   -0.39250  -0.38148  -0.37726  -0.37059  -0.36455
 Alpha  occ. eigenvalues --   -0.35730  -0.33339  -0.32200  -0.30952  -0.30367
 Alpha  occ. eigenvalues --   -0.25830  -0.25515  -0.23107
 Alpha virt. eigenvalues --   -0.01555   0.00933   0.02780   0.06945   0.07947
 Alpha virt. eigenvalues --    0.11522   0.12187   0.12984   0.13672   0.13938
 Alpha virt. eigenvalues --    0.14663   0.15547   0.16078   0.16990   0.17673

 Mulliken charges:
               1
     1  O   -0.456319
     2  C    0.451704
     3  C   -0.364242
     4  C   -0.102466
     5  C   -0.144817
     6  C   -0.034379
     7  C   -0.349300
     8  C   -0.165062
     9  C   -0.031860
    10  C   -0.346890
    11  C   -0.167749
    12  C   -0.297552
    13  C   -0.282089
    14  H    0.169172
    15  H    0.169011
    16  H    0.131435
    17  H    0.131387
    18  H    0.124890
    19  H    0.137367
    20  H    0.140381
    21  H    0.144615
    22  H    0.125790
    23  H    0.140544
    24  H    0.141176
    25  H    0.146556
    26  H    0.154231
    27  H    0.149422
    28  H    0.141859
    29  H    0.143184
 Sum of Mulliken charges =  -0.00000

 Dipole moment (field-independent basis, Debye):
    X=              2.1218    Y=             -1.4454    Z=              1.3797  Tot=              2.9146
 Quadrupole moment (field-independent basis, Debye-Ang):
   XX=            -87.7384   YY=            -78.5563   ZZ=            -76.2347
   XY=              5.3152   XZ=             -4.1204   YZ=              1.7927

  Exact polarizability: 134.950   1.771 119.871  -1.682  -0.215 105.081
 Approx polarizability: 185.947  -1.030 167.699  -1.833  -4.234 163.926

 ******    1 imaginary frequencies (negative Signs) ******

                      1                      2                      3
                      A                      A                      A
 Frequencies --    -14.1384                73.4475                82.8329
 Red. masses --      3.6790                 3.1538                 2.8529
 Frc consts  --      0.0004                 0.0100                 0.0115
 IR Inten    --      1.2222                 0.0080                 0.7659

                      4                      5                      6
                      A                      A                      A
 Frequencies --     96.2827               183.2907               222.3850
 Red. masses --      4.6929                 2.7950                 1.9948
 Frc consts  --      0.0256                 0.0553                 0.0581
 IR Inten    --      2.9156                 0.3005                 0.1378

                      7                      8                      9
                      A                      A                      A
 Frequencies --    266.3269               282.5610               310.7786
 Red. masses --      2.0998                 1.9491                 2.8426
 Frc consts  --      0.0878                 0.0917                 0.1618
 IR Inten    --      0.0766                 0.0140                 0.3078

                     10                     11                     12
                      A                      A                      A
 Frequencies --    347.3483               369.7177               382.3121
 Red. masses --      2.7418                 2.6454                 3.5850
 Frc consts  --      0.1949                 0.2131                 0.3087
 IR Inten    --      0.5155                 2.3314                 3.3094

                     13                     14                     15
                      A                      A                      A
 Frequencies --    418.6177               462.0586               508.6359
 Red. masses --      2.6395                 4.0383                 3.8651
 Frc consts  --      0.2725                 0.5080                 0.5892
 IR Inten    --      2.3003                11.6685                 0.7946

                     16                     17                     18
                      A                      A                      A
 Frequencies --    585.8147               609.3038               636.8690
 Red. masses --      3.1210                 2.5833                 3.1892
 Frc consts  --      0.6310                 0.5651                 0.7621
 IR Inten    --      1.3691                 0.7313                 2.2746

                     19                     20                     21
                      A                      A                      A
 Frequencies --    683.5235               718.1607               759.3469
 Red. masses --      2.2112                 2.2702                 3.1979
 Frc consts  --      0.6087                 0.6899                 1.0864
 IR Inten    --      4.2467                 3.2731                 1.7107

                     22                     23                     24
                      A                      A                      A
 Frequencies --    781.0102               835.7381               848.6180
 Red. masses --      2.5639                 1.4683                 2.6069
 Frc consts  --      0.9214                 0.6042                 1.1061
 IR Inten    --      2.0517                 5.6482                 1.6852

                     25                     26                     27
                      A                      A                      A
 Frequencies --    866.9128               896.1297               942.4580
 Red. masses --      2.1450                 2.1381                 1.3583
 Frc consts  --      0.9498                 1.0116                 0.7108
 IR Inten    --      5.7676                 2.3250                38.5399

                     28                     29                     30
                      A                      A                      A
 Frequencies --    944.8024               950.0814               963.7703
 Red. masses --      1.3578                 1.9514                 2.7605
 Frc consts  --      0.7141                 1.0378                 1.5107
 IR Inten    --     29.0745                 3.2718                 1.8041

                     31                     32                     33
                      A                      A                      A
 Frequencies --    990.4654              1017.5997              1031.2373
 Red. masses --      2.1012                 2.0058                 1.1484
 Frc consts  --      1.2145                 1.2238                 0.7196
 IR Inten    --      0.9099                 1.2388                 9.9693

                     34                     35                     36
                      A                      A                      A
 Frequencies --   1034.7252              1045.1282              1055.5118
 Red. masses --      2.5319                 1.1696                 2.0534
 Frc consts  --      1.5972                 0.7527                 1.3478
 IR Inten    --      9.5898                11.7158                 0.3784

                     37                     38                     39
                      A                      A                      A
 Frequencies --   1075.3894              1094.3843              1108.6952
 Red. masses --      2.5630                 1.8793                 1.8155
 Frc consts  --      1.7464                 1.3261                 1.3148
 IR Inten    --      0.1456                10.2810                14.6888

                     40                     41                     42
                      A                      A                      A
 Frequencies --   1137.5784              1187.4349              1189.5085
 Red. masses --      1.4092                 1.2203                 2.1028
 Frc consts  --      1.0744                 1.0138                 1.7530
 IR Inten    --     13.9715                 4.7946                 2.3048

                     43                     44                     45
                      A                      A                      A
 Frequencies --   1217.7095              1251.2777              1262.1615
 Red. masses --      1.6455                 1.5214                 1.2384
 Frc consts  --      1.4376                 1.4034                 1.1624
 IR Inten    --     14.7799                15.9971                 0.1225

                     46                     47                     48
                      A                      A                      A
 Frequencies --   1282.1140              1305.0088              1324.2950
 Red. masses --      1.5721                 1.4548                 1.3674
 Frc consts  --      1.5226                 1.4597                 1.4130
 IR Inten    --      1.5726                 2.0997                 0.1699

                     49                     50                     51
                      A                      A                      A
 Frequencies --   1331.6290              1336.5491              1346.5030
 Red. masses --      1.3176                 1.3628                 1.3697
 Frc consts  --      1.3766                 1.4344                 1.4632
 IR Inten    --      1.9315                 4.6276                 4.9237

                     52                     53                     54
                      A                      A                      A
 Frequencies --   1351.2885              1360.2241              1370.2490
 Red. masses --      1.2806                 1.3569                 1.3298
 Frc consts  --      1.3777                 1.4792                 1.4711
 IR Inten    --      2.4188                 1.5870                 1.3501

                     55                     56                     57
                      A                      A                      A
 Frequencies --   1373.4474              1382.8752              1398.7564
 Red. masses --      1.4696                 1.5210                 1.4022
 Frc consts  --      1.6333                 1.7137                 1.6164
 IR Inten    --      6.7374                 8.5884                 0.5347

                     58                     59                     60
                      A                      A                      A
 Frequencies --   1474.3018              1480.3261              1483.1515
 Red. masses --      1.0963                 1.1843                 1.2185
 Frc consts  --      1.4040                 1.5291                 1.5793
 IR Inten    --     10.8078                 3.6267                 1.5346

                     61                     62                     63
                      A                      A                      A
 Frequencies --   1524.9054              1546.2226              1724.7415
 Red. masses --      1.0736                 1.0918                 4.3927
 Frc consts  --      1.4709                 1.5379                 7.6989
 IR Inten    --      0.5464                 9.1321                 4.1731

                     64                     65                     66
                      A                      A                      A
 Frequencies --   1726.6474              1825.3887              3031.9399
 Red. masses --      4.4181                11.9114                 1.0855
 Frc consts  --      7.7605                23.3843                 5.8792
 IR Inten    --      5.8719               228.0396                 5.6659

                     67                     68                     69
                      A                      A                      A
 Frequencies --   3044.3603              3053.0231              3054.5943
 Red. masses --      1.0616                 1.0644                 1.0843
 Frc consts  --      5.7967                 5.8454                 5.9609
 IR Inten    --     12.9732                11.2301                30.1977

                     70                     71                     72
                      A                      A                      A
 Frequencies --   3065.3227              3073.3570              3082.6826
 Red. masses --      1.0654                 1.0812                 1.1022
 Frc consts  --      5.8982                 6.0170                 6.1712
 IR Inten    --     47.5850                41.6665                14.0179

                     73                     74                     75
                      A                      A                      A
 Frequencies --   3084.5840              3105.8661              3106.9246
 Red. masses --      1.1032                 1.1034                 1.0875
 Frc consts  --      6.1846                 6.2713                 6.1850
 IR Inten    --      4.6095                48.7764                16.7941

                     76                     77                     78
                      A                      A                      A
 Frequencies --   3147.2815              3153.3404              3158.0245
 Red. masses --      1.0727                 1.0603                 1.0759
 Frc consts  --      6.2605                 6.2117                 6.3218
 IR Inten    --      7.1388                21.0949                 3.5241

                     79                     80                     81
                      A                      A                      A
 Frequencies --   3163.9380              3234.4236              3235.9484
 Red. masses --      1.0889                 1.1155                 1.1156
 Frc consts  --      6.4224                 6.8757                 6.8831
 IR Inten    --     16.2614                13.4490                24.7683

 - Thermochemistry -
 -------------------
 Temperature   298.150 Kelvin.  Pressure   1.00000 Atm.
 Atom     1 has atomic number  8 and mass  15.99491

 Molecular mass:   176.12012 amu.
 Principal axes and moments of inertia in atomic units:
                           1         2         3
     Eigenvalues --  1676.433652527.437983202.69522
           X            0.99934   0.03129  -0.01821
           Y           -0.03110   0.99946   0.01033
           Z            0.01853  -0.00976   0.99978
 This molecule is an asymmetric top.
 Rotational symmetry number  1.
 Warning -- assumption of classical behavior for rotation
           may cause significant error
 Rotational temperatures (Kelvin)      0.05167     0.03427     0.02704
 Rotational constants (GHZ):           1.07654     0.71406     0.56351
    1 imaginary frequencies ignored.
 Zero-point vibrational energy     666751.7 (Joules/Mol)
                                  159.35748 (Kcal/Mol)
 Warning -- explicit consideration of  16 degrees of freedom as
           vibrations may cause significant error
 Vibrational temperatures:    105.67   119.18   138.53   263.71   319.96
          (Kelvin)            383.19   406.54   447.14   499.76   531.94
                              550.06   602.30   664.80   731.81   842.86
                              876.65   916.31   983.44  1033.27  1092.53
                             1123.70  1202.44  1220.97  1247.29  1289.33
                             1355.99  1359.36  1366.96  1386.65  1425.06
                             1464.10  1483.72  1488.74  1503.71  1518.65
                             1547.25  1574.57  1595.17  1636.72  1708.45
                             1711.44  1752.01  1800.31  1815.97  1844.68
                             1877.62  1905.37  1915.92  1923.00  1937.32
                             1944.20  1957.06  1971.48  1976.08  1989.65
                             2012.50  2121.19  2129.86  2133.92  2194.00
                             2224.67  2481.52  2484.26  2626.33  4362.29
                             4380.16  4392.62  4394.88  4410.32  4421.88
                             4435.29  4438.03  4468.65  4470.17  4528.24
                             4536.95  4543.69  4552.20  4653.61  4655.81

 Zero-point correction=                           0.253952 (Hartree/Particle)
 Thermal correction to Energy=                    0.265111
 Thermal correction to Enthalpy=                  0.266055
 Thermal correction to Gibbs Free Energy=         0.217174
 Sum of electronic and zero-point Energies=           -541.826702
 Sum of electronic and thermal Energies=              -541.815544
 Sum of electronic and thermal Enthalpies=            -541.814599
 Sum of electronic and thermal Free Energies=         -541.863481

                     E (Thermal)             CV                S
                      KCal/Mol        Cal/Mol-Kelvin    Cal/Mol-Kelvin
 Total                  166.359             45.413            102.879
 Electronic               0.000              0.000              0.000
 Translational            0.889              2.981             41.405
 Rotational               0.889              2.981             30.985
 Vibrational            164.582             39.451             30.490
 Vibration     1          0.599              1.967              4.059
 Vibration     2          0.600              1.961              3.823
 Vibration     3          0.603              1.952              3.528
 Vibration     4          0.631              1.863              2.295
 Vibration     5          0.648              1.807              1.940
 Vibration     6          0.672              1.735              1.620
 Vibration     7          0.682              1.706              1.518
 Vibration     8          0.700              1.653              1.358
 Vibration     9          0.725              1.581              1.178
 Vibration    10          0.742              1.534              1.081
 Vibration    11          0.752              1.508              1.030
 Vibration    12          0.781              1.430              0.897
 Vibration    13          0.820              1.334              0.760
 Vibration    14          0.864              1.231              0.637
 Vibration    15          0.943              1.062              0.475
 Vibration    16          0.968              1.012              0.434

 Normal termination of Gaussian 16 at Sat Feb 24 03:55:36 2024.
